# vtk DataFile Version 2.0
phase field modeling fracture
ASCII
DATASET UNSTRUCTURED_GRID
POINTS 2538 float
0.0 0.0 0.0
10.0 0.0 0.0
0.0 10.0 0.0
10.0 10.0 0.0
0.0 4.9995 0.0
0.0 5.0005 0.0
5.0 5.0 0.0
0.9416964895726688 0.0 0.0
1.803581725054446 0.0 0.0
2.592419885431098 0.0 0.0
3.314401822861676 0.0 0.0
3.975193910351406 0.0 0.0
4.579982132660152 0.0 0.0
5.133512780936812 0.0 0.0
5.640130319506143 0.0 0.0
6.103810708661955 0.0 0.0
6.528192895506818 0.0 0.0
6.916607540127679 0.0 0.0
7.272102969376355 0.0 0.0
7.597469242948583 0.0 0.0
7.895259826292669 0.0 0.0
8.167811885738017 0.0 0.0
8.417264413845215 0.0 0.0
8.645575169389538 0.0 0.0
8.854535961159101 0.0 0.0
9.045786767735546 0.0 0.0
9.220828555767493 0.0 0.0
9.38103509633881 0.0 0.0
9.527663687265145 0.0 0.0
9.661865124984566 0.0 0.0
9.784692609918062 0.0 0.0
9.897110148790482 0.0 0.0
10.0 0.09999999999992584 0.0
10.0 0.199999999999856 0.0
10.0 0.2999999999997771 0.0
10.0 0.3999999999996677 0.0
10.0 0.4999999999995511 0.0
10.0 0.5999999999994683 0.0
10.0 0.6999999999993983 0.0
10.0 0.7999999999993286 0.0
10.0 0.8999999999992587 0.0
10.0 0.9999999999991888 0.0
10.0 1.099999999999119 0.0
10.0 1.199999999999033 0.0
10.0 1.299999999998852 0.0
10.0 1.399999999998576 0.0
10.0 1.499999999998284 0.0
10.0 1.599999999997992 0.0
10.0 1.6999999999977 0.0
10.0 1.799999999997408 0.0
10.0 1.899999999997116 0.0
10.0 1.999999999996825 0.0
10.0 2.099999999996533 0.0
10.0 2.199999999996241 0.0
10.0 2.299999999995949 0.0
10.0 2.399999999995657 0.0
10.0 2.499999999995365 0.0
10.0 2.599999999995073 0.0
10.0 2.699999999994782 0.0
10.0 2.79999999999449 0.0
10.0 2.899999999994198 0.0
10.0 2.999999999993906 0.0
10.0 3.099999999993614 0.0
10.0 3.199999999993322 0.0
10.0 3.299999999993029 0.0
10.0 3.399999999992738 0.0
10.0 3.499999999992446 0.0
10.0 3.599999999992154 0.0
10.0 3.699999999991863 0.0
10.0 3.799999999991571 0.0
10.0 3.899999999991278 0.0
10.0 3.999999999991022 0.0
10.0 4.099999999991035 0.0
10.0 4.199999999991187 0.0
10.0 4.299999999991338 0.0
10.0 4.399999999991491 0.0
10.0 4.499999999991642 0.0
10.0 4.599999999991795 0.0
10.0 4.699999999991947 0.0
10.0 4.799999999992099 0.0
10.0 4.89999999999225 0.0
10.0 4.999999999992403 0.0
10.0 5.099999999992555 0.0
10.0 5.199999999992706 0.0
10.0 5.299999999992858 0.0
10.0 5.39999999999301 0.0
10.0 5.499999999993161 0.0
10.0 5.599999999993313 0.0
10.0 5.699999999993466 0.0
10.0 5.799999999993618 0.0
10.0 5.899999999993771 0.0
10.0 5.999999999993922 0.0
10.0 6.099999999994074 0.0
10.0 6.199999999994227 0.0
10.0 6.299999999994378 0.0
10.0 6.39999999999453 0.0
10.0 6.499999999994682 0.0
10.0 6.599999999994833 0.0
10.0 6.699999999994986 0.0
10.0 6.799999999995138 0.0
10.0 6.899999999995289 0.0
10.0 6.999999999995442 0.0
10.0 7.099999999995594 0.0
10.0 7.199999999995747 0.0
10.0 7.299999999995897 0.0
10.0 7.39999999999605 0.0
10.0 7.499999999996202 0.0
10.0 7.599999999996353 0.0
10.0 7.699999999996505 0.0
10.0 7.799999999996658 0.0
10.0 7.899999999996808 0.0
10.0 7.999999999996962 0.0
10.0 8.099999999997113 0.0
10.0 8.199999999997265 0.0
10.0 8.299999999997418 0.0
10.0 8.399999999997569 0.0
10.0 8.499999999997721 0.0
10.0 8.599999999997873 0.0
10.0 8.699999999998024 0.0
10.0 8.799999999998176 0.0
10.0 8.899999999998329 0.0
10.0 8.99999999999848 0.0
10.0 9.099999999998634 0.0
10.0 9.199999999998786 0.0
10.0 9.299999999998937 0.0
10.0 9.399999999999089 0.0
10.0 9.499999999999241 0.0
10.0 9.599999999999392 0.0
10.0 9.699999999999545 0.0
10.0 9.799999999999697 0.0
10.0 9.899999999999848 0.0
9.897110148790565 10.0 0.0
9.784692609918244 10.0 0.0
9.66186512498486 10.0 0.0
9.527663687265571 10.0 0.0
9.381035096339392 10.0 0.0
9.220828555768257 10.0 0.0
9.045786767736512 10.0 0.0
8.854535961160305 10.0 0.0
8.645575169391027 10.0 0.0
8.417264413847017 10.0 0.0
8.167811885740178 10.0 0.0
7.895259826295246 10.0 0.0
7.597469242951631 10.0 0.0
7.272102969379938 10.0 0.0
6.916607540131873 10.0 0.0
6.528192895511704 10.0 0.0
6.103810708667616 10.0 0.0
5.640130319512691 10.0 0.0
5.13351278094435 10.0 0.0
4.579982132668816 10.0 0.0
3.975193910361222 10.0 0.0
3.314401822869852 10.0 0.0
2.592419885437257 10.0 0.0
1.803581725058137 10.0 0.0
0.9416964895740705 10.0 0.0
0.0 9.00010000000243 0.0
0.0 8.000200000005481 0.0
0.0 7.000300000005135 0.0
0.0 6.000400000002569 0.0
0.901790731451151 5.000409820926855 0.0
1.657200899774397 5.000334279910023 0.0
2.289991063707192 5.000271000893629 0.0
2.820065163538221 5.000217993483646 0.0
3.264096435579811 5.000173590356442 0.0
3.636051481595835 5.00013639485184 0.0
3.947629914072366 5.000105237008593 0.0
4.208632181002628 5.0000791367819 0.0
4.427267949625672 5.000057273205037 0.0
4.610414277633563 5.000038958572237 0.0
4.763831845154243 5.000023616815485 0.0
4.892346298799659 5.00001076537012 0.0
4.892346298799748 4.99998923462988 0.0
4.763831845154455 4.999976383184515 0.0
4.610414277633943 4.999961041427763 0.0
4.427267949626277 4.999942726794963 0.0
4.208632181003523 4.9999208632181 0.0
3.94762991407365 4.999894762991407 0.0
3.636051481597624 4.99986360514816 0.0
3.264096435582253 4.999826409643559 0.0
2.820065163541503 4.999782006516354 0.0
2.289991063711534 4.999728999106371 0.0
1.657200899778495 4.999665720089978 0.0
0.9017907314530094 4.999590179073145 0.0
0.0 3.999600000002013 0.0
0.0 2.999700000005187 0.0
0.0 1.99980000000512 0.0
0.0 0.9999000000025537 0.0
9.897889398521345 2.93573355845387 0.0
9.906568249974548 7.060009441434234 0.0
9.913122631074113 3.64016132281653 0.0
9.922462129543863 6.354535290629151 0.0
9.917693659967533 4.354211663134567 0.0
9.909873057440208 5.637584487339942 0.0
9.914183254994697 4.950672966925282 0.0
9.913885043715895 7.666887930262611 0.0
9.91009668007573 2.351889069770817 0.0
9.905135696074536 8.138152454502785 0.0
9.913397459621809 1.849999999997262 0.0
7.099302372137626 0.297750452375005 0.0
7.095143729410097 9.700359990366296 0.0
4.942912558701401 5.095838627899509 0.0
4.315009232304429 5.165022115481685 0.0
4.946182472483878 4.906763777264103 0.0
4.317967462990024 4.825955043772673 0.0
9.916390871492647 8.64999999999792 0.0
9.921504649680616 1.368376469890358 0.0
8.292538149791614 0.206877570318844 0.0
8.292538149793597 9.793122429681448 0.0
5.884594439766573 9.587645267048616 0.0
5.794826292691579 0.3794853783929359 0.0
9.913397459621425 9.049999999998557 0.0
9.908526577714177 0.9568239351922434 0.0
3.456851160380649 5.315740054130451 0.0
3.457889657868442 4.707121019609468 0.0
8.945214200703926 0.1503383337970344 0.0
8.950161364448409 9.8413906539257 0.0
9.913862335499305 4.055887885208452 0.0
9.916697353372683 4.650158482607802 0.0
9.919076340414442 6.049999999994006 0.0
9.906994308667635 5.25749687748192 0.0
9.917490342358025 6.655979201891897 0.0
9.915757520293784 7.343848891656911 0.0
9.910049507471042 3.363474386285078 0.0
9.914471988502868 2.647400064832979 0.0
9.91474124160965 9.337490423485129 0.0
9.916971008170838 0.6499999999994355 0.0
4.307157269264427 9.509674045029644 0.0
4.331527375865619 0.4401616696422582 0.0
9.45434939180249 9.878397030523757 0.0
9.457696120412969 0.1270877537061785 0.0
2.555070293622606 5.422044496190925 0.0
2.566232917480916 4.608001224030952 0.0
3.026511860837692 9.332320638257093 0.0
2.945561971800619 0.5895662714727601 0.0
7.7395404387124 0.2511088946967771 0.0
7.736379255744154 9.745848826372828 0.0
4.687135269408529 5.122111433928926 0.0
4.688420821504113 4.871895064967488 0.0
9.910554884115975 0.3448356354522978 0.0
9.911230082250466 9.65764729394159 0.0
9.921953841410854 6.851023993342036 0.0
9.912065178606017 5.448170483544033 0.0
9.911660025326261 3.861846960030188 0.0
9.914847467973438 3.14501593945607 0.0
9.913397459621425 5.849999999993703 0.0
9.913397459621425 7.849999999996735 0.0
9.906916878988277 2.15455769998631 0.0
9.913397459621425 8.349999999997479 0.0
9.909472363117661 1.640528221515488 0.0
9.913987325695956 1.152857110636247 0.0
9.913397459621425 8.849999999998241 0.0
0.9100099990995943 2.614215977520411 0.0
0.8395284981715456 7.451196254860987 0.0
9.723278867451556 9.898135916635193 0.0
9.723316350887044 0.09841820909386662 0.0
1.385819164827588 4.454539963646463 0.0
1.338343629665047 5.523111536005823 0.0
1.377179700550677 0.6809168304959698 0.0
1.418060461092743 9.285896715136046 0.0
9.91268220142518 0.1457914080939694 0.0
9.906737126737994 9.845745933882352 0.0
0.7108351382691361 6.537941170074089 0.0
1.527735020267026 6.915620208855231 0.0
1.630993885659103 7.838271825205868 0.0
2.232760943566823 7.370850737296832 0.0
2.243414218068206 6.688299277952821 0.0
2.779655053105118 7.021588754814074 0.0
2.80227799359795 7.632420170547022 0.0
3.282022065908813 7.305859666021318 0.0
3.327597298795347 7.857554136825748 0.0
3.743210251018715 7.549183328204379 0.0
3.716353232200752 7.062036086888612 0.0
4.111978858674101 7.27497101169417 0.0
4.104192177581432 6.879858986267289 0.0
4.436230765617037 7.045693351607117 0.0
4.430360014817357 6.703971783962796 0.0
4.732390145036301 6.849841042423394 0.0
5.056161327708878 5.095276573498806 0.0
5.111586796021131 4.999081142133581 0.0
5.169267363407189 5.09444870412406 0.0
5.223795108752053 4.996986220359468 0.0
5.281480803887719 5.092780870372803 0.0
5.335670761900611 4.994887492556936 0.0
5.393485214772442 5.090486192743301 0.0
5.447323082877892 4.992601527033996 0.0
5.505243219343024 5.087953380710069 0.0
5.558739102026105 4.990287787962959 0.0
5.616491581184779 5.085335255235766 0.0
5.669852346908056 4.9879269227514 0.0
5.727502713908907 5.082679981817038 0.0
5.780766004135139 4.988313988715834 0.0
5.838244881129535 5.080480568766611 0.0
5.891357695677371 4.986433849408193 0.0
5.948696036767613 5.077969900389505 0.0
6.001601341641615 4.981313698556656 0.0
6.058851024265095 5.074871552128682 0.0
6.111614020704875 4.978360695880202 0.0
6.168801161530775 5.072044953270978 0.0
6.221368818778567 4.975825765213497 0.0
6.278268309066882 5.066182320461055 0.0
6.330814273567539 4.972837984645718 0.0
6.387565032421376 5.062889771971895 0.0
6.437476667631405 4.971693683589553 0.0
[...]
POINT_DATA 2538
VECTORS disp float
1.2147001466642965e-11 1.5924741093358333e-11 0.0
1.4538628615450794e-12 -5.36773407767675e-12 0.0
0.0012000000002759118 1.547864570986365e-12 0.0
0.0011999999791419923 -4.041501269882671e-11 0.0
0.0006020430963837257 0.00027389354728494885 0.0
0.0008927667760710231 2.0192883798423198e-5 0.0
0.0007229174924656802 -5.7674360927210154e-5 0.0
-2.2833814820041595e-12 -3.521244961537701e-12 0.0
9.840397597140042e-13 7.425503574929811e-13 0.0
3.662327504501755e-13 -1.2848348946285497e-12 0.0
4.902740668034534e-13 -8.637833195479168e-13 0.0
2.1750821562417156e-13 -8.188973075488855e-13 0.0
2.747281862381352e-13 -1.0467571295459066e-12 0.0
2.0404090385052658e-13 -1.1931179024454045e-12 0.0
1.7577507000830488e-13 -1.4540145049967e-12 0.0
1.2736700552034244e-13 -1.684764463852284e-12 0.0
2.2389216435134909e-13 -1.912483057904935e-12 0.0
2.2268025577233898e-13 -2.0496589368327845e-12 0.0
2.505001077330639e-13 -2.1472784409276887e-12 0.0
2.6562836601738105e-13 -2.2037935107087083e-12 0.0
2.5368181467628985e-13 -2.2180933742551285e-12 0.0
2.8510542737937803e-13 -2.3058402509502083e-12 0.0
2.5812340302928576e-13 -2.3292547599355066e-12 0.0
2.492226168484049e-13 -2.411727055005845e-12 0.0
2.8223190447911727e-13 -2.4798133660094624e-12 0.0
2.5685520339199843e-13 -2.50747917049518e-12 0.0
2.7112834428011496e-13 -2.5469059065758304e-12 0.0
3.2578934818591577e-13 -2.5743479991943995e-12 0.0
3.4413775062787113e-13 -2.6109892267246687e-12 0.0
3.364292191684151e-13 -2.7057980080118227e-12 0.0
4.775403815550188e-13 -2.899709502863289e-12 0.0
1.5144376348640113e-13 -2.6652926865614713e-12 0.0
1.4254269437227554e-5 -4.81673717626042e-6 0.0
2.641166822260871e-5 -8.959629806430822e-6 0.0
3.830442339294521e-5 -1.2752869762077297e-5 0.0
4.97153429168657e-5 -1.638872574322236e-5 0.0
6.076843729479311e-5 -1.9885683301480102e-5 0.0
7.158303140654049e-5 -2.3325019757280214e-5 0.0
8.242133510646501e-5 -2.6593799864839037e-5 0.0
9.320925107606289e-5 -2.9882125584236362e-5 0.0
0.00010395288806358665 -3.3189880921617726e-5 0.0
0.00011473202350334212 -3.647524035877959e-5 0.0
0.0001254893450825928 -3.976367634541483e-5 0.0
0.0001363796781767629 -4.3100533693040604e-5 0.0
0.0001470582494789629 -4.654048834264153e-5 0.0
0.00015749681458689205 -4.990708971119545e-5 0.0
0.00016869019675370194 -5.378613593947918e-5 0.0
0.00017931048763386877 -5.78116711181457e-5 0.0
0.00019005589217634345 -6.17593894064723e-5 0.0
0.00020059911952250765 -6.55510008408637e-5 0.0
0.00021110017962570212 -6.930572905246894e-5 0.0
0.00022159242373676264 -7.287899510262193e-5 0.0
0.00023250682327376286 -7.62062912522605e-5 0.0
0.00024295375121697333 -7.937906384004814e-5 0.0
0.00025438007010117347 -8.21352401711952e-5 0.0
0.00026520898805733225 -8.503664395220635e-5 0.0
0.0002767018906351882 -8.765964337992702e-5 0.0
0.0002880797475512213 -9.025446288850593e-5 0.0
0.00029971504353149984 -9.274876896842557e-5 0.0
0.00031126775776935757 -9.501934514656026e-5 0.0
0.0003233960923201553 -9.716103704812088e-5 0.0
0.00033531612129761345 -9.928966073073138e-5 0.0
0.0003474264057609959 -0.00010132573878168387 0.0
0.00035953385773767894 -0.00010326867380842875 0.0
0.0003719632463599723 -0.00010532566984739589 0.0
0.0003849969261318185 -0.00010749407430258776 0.0
0.00039888960040107297 -0.00011047753974288907 0.0
0.00041133177847430034 -0.00011379642994363714 0.0
0.0004224757866681832 -0.00011790638236214217 0.0
0.00043481271045834116 -0.0001221018638618431 0.0
0.00044374266554428115 -0.00012710741518657655 0.0
0.0004536229639742535 -0.00013090297063199702 0.0
0.0004618023286739153 -0.00013453752076006973 0.0
0.00046839340306184437 -0.00013751682114846313 0.0
0.0004775676498231023 -0.00013859099033747976 0.0
0.0004873774671328215 -0.00013974775344447761 0.0
0.0004975471825991315 -0.00014084675216091073 0.0
0.0005080323715019608 -0.00014185848604189127 0.0
0.000518986602373865 -0.00014276425150165674 0.0
0.0005304508944978884 -0.00014347308333029666 0.0
0.0005420658815325112 -0.00014428288332215506 0.0
0.0005543898906384912 -0.00014486227106425383 0.0
0.0005663202336097218 -0.0001454263702658523 0.0
0.0005799320552024306 -0.00014563871399483877 0.0
0.0005943785682597352 -0.0001459170823396475 0.0
0.0006106191540629466 -0.00014623711514291754 0.0
0.000626348433187606 -0.00014661868970345485 0.0
0.0006418684241493784 -0.00014668862927854118 0.0
0.0006558062313536462 -0.00014680389935651034 0.0
0.0006687593374617313 -0.0001468935975235269 0.0
0.0006809916914044645 -0.00014707584043825893 0.0
0.0006924518474011981 -0.00014730772390633107 0.0
0.0007031718591023658 -0.00014768994421468469 0.0
0.0007135650566296422 -0.00014818852085380613 0.0
0.0007243409495937141 -0.00014872019983872836 0.0
0.000734879737243943 -0.00014920808234002628 0.0
0.0007454963385817119 -0.00014964187449482963 0.0
0.0007566588590857813 -0.0001498631922074744 0.0
0.0007680528873540992 -0.00014998929256601024 0.0
0.0007791965115341315 -0.00015010736101150277 0.0
0.0007904263286487424 -0.00014996868477818172 0.0
0.0008017646712014481 -0.00014977531757304124 0.0
0.0008126818998552229 -0.00014967616554962924 0.0
0.0008237450835358502 -0.0001496301045509705 0.0
0.0008344736218458527 -0.00014991907024131042 0.0
0.0008449921138827762 -0.00015029839115076986 0.0
0.000855312922684606 -0.00015074383808718296 0.0
0.0008646193165246411 -0.00015121104936588725 0.0
0.0008742512989750413 -0.00015157358186675224 0.0
0.0008838036336652385 -0.00015201202861918158 0.0
0.0008938977370236856 -0.00015229453184411413 0.0
0.0009040109615345383 -0.0001525743192711351 0.0
0.0009146701564042095 -0.00015300015101518243 0.0
0.0009254251316984946 -0.0001526045277479275 0.0
0.0009359681879795873 -0.00015146377049546619 0.0
0.000945875177531391 -0.0001489848736901996 0.0
0.0009564724787210606 -0.00014522485814752676 0.0
0.0009672353249642056 -0.00014181135366121922 0.0
0.0009789559714289487 -0.00013844637366906866 0.0
0.0009909496345611138 -0.0001351979335866583 0.0
0.0010022930566541226 -0.00013236129530293616 0.0
0.0010141321079256587 -0.00012924830471678094 0.0
0.0010270060185474119 -0.00012513631340350617 0.0
0.0010394185974384584 -0.0001198904929676128 0.0
0.0010522985375509028 -0.00011363109654238027 0.0
0.0010652958505696975 -0.00010647036536897089 0.0
0.0010800331239581105 -9.778200696450987e-5 0.0
0.0010962555730281171 -8.655775675981806e-5 0.0
0.0011136819135425752 -7.242902615011982e-5 0.0
0.001135615087761332 -5.527876799919794e-5 0.0
0.0011614138062258892 -3.374981617804076e-5 0.0
0.0012000000009614335 1.1533455592652482e-12 0.0
0.001199999997227308 -3.2989329819644533e-12 0.0
0.0011999999993020992 8.373384255493198e-13 0.0
0.0011999999987518945 2.640883130867992e-13 0.0
0.0011999999990970126 6.278308574298353e-13 0.0
0.0011999999990462335 7.163610185717106e-13 0.0
0.0011999999990814315 6.505193069712856e-13 0.0
0.001199999999167763 6.730838966240032e-13 0.0
0.0011999999992005337 7.270889496032869e-13 0.0
0.0011999999992745192 7.977410516464683e-13 0.0
0.0011999999993039933 8.932143602049141e-13 0.0
0.0011999999993447669 1.0069378015423813e-12 0.0
0.001199999999326832 1.0845611624613372e-12 0.0
0.0011999999993268658 1.1553902450018188e-12 0.0
0.0011999999993117243 1.2016778124071907e-12 0.0
0.001199999999299762 1.240427619829167e-12 0.0
0.0011999999992696444 1.2513909144655117e-12 0.0
0.0011999999993029748 1.2938962337755593e-12 0.0
0.0011999999992860551 1.3158023584697342e-12 0.0
0.0011999999993524597 1.238257635588244e-12 0.0
0.0011999999993962886 1.1939451675498072e-12 0.0
0.001199999999408669 1.094197577415033e-12 0.0
0.0011999999995752563 1.1077026258909332e-12 0.0
0.0011999999998065084 1.244536994471988e-12 0.0
0.001199999999744919 1.0943533123439878e-12 0.0
0.0011264246361474537 1.698239696130366e-5 0.0
0.0010528024261590241 2.147578377952844e-5 0.0
0.0009849333958512373 1.9991486262288965e-5 0.0
0.0009309325942631934 2.0139586421830222e-5 0.0
0.0008920423042678928 -7.913757852008291e-6 0.0
0.0008906346555383648 -3.726971238678856e-5 0.0
0.0008894649260585191 -6.481344705290342e-5 0.0
0.0008852337417896088 -8.551195054642647e-5 0.0
0.0008786854547560539 -0.00010069943927982984 0.0
0.0008693808940545365 -0.00011091326259582109 0.0
0.0008578616831537789 -0.00011655467778436014 0.0
0.0008440212187038732 -0.00011653010451344764 0.0
0.0008287720725692185 -0.00011405241253691268 0.0
0.0008113041937101964 -0.00010947063405091787 0.0
0.0007894425992988562 -0.00010242359223413327 0.0
0.0007631179056334572 -9.034003469707996e-5 0.0
0.0007001626989698684 -2.6474329210776926e-5 0.0
0.0006830195878456065 -6.741631560785549e-6 0.0
0.0006678342118729023 9.397410652166895e-6 0.0
0.0006536443199653163 2.4913321969743933e-5 0.0
0.0006401465274059415 3.946816349778007e-5 0.0
0.0006285124953395664 5.382892457349714e-5 0.0
0.0006181552342005035 6.886833550803186e-5 0.0
0.0006095927742122365 8.383929055509875e-5 0.0
0.000604151449088799 0.00010508196905915973 0.0
0.0005993710140967277 0.00012915573231764234 0.0
0.0006004093046320791 0.00016163295071514085 0.0
0.0005963102819996633 0.00020341524772002817 0.0
0.0005173721736056319 0.00027381880771322595 0.0
0.0004291498250636145 0.000271514977012609 0.0
0.00034308537793149374 0.00024949093277427074 0.0
0.0002441642951410928 0.00018616253270264686 0.0
0.00032664250058626334 -9.304332146279038e-5 0.0
0.0008084377706286448 -0.00014254382621260335 0.0
0.00041311580656901495 -0.00010838819435224055 0.0
0.0007299597542577353 -0.00014243519196111714 0.0
0.00048252310501319736 -0.000131594788264842 0.0
0.0006473608116553956 -0.00013755731046584619 0.0
0.0005483751442803209 -0.0001345454473770638 0.0
0.0008708297195366488 -0.00014495804502167464 0.0
0.0002585880122271755 -7.985082132744356e-5 0.0
0.0009194370303241823 -0.00014191174335108077 0.0
0.00020359499151198035 -6.370123385269202e-5 0.0
2.577471577837149e-5 -5.175075394130777e-6 0.0
0.0011659749775578315 8.15191627148724e-7 0.0
0.0007447979591691617 -6.398778385736779e-5 0.0
0.0008229999527997157 -0.00010738030276288293 0.0
0.0006731986766209733 -3.3009623958742274e-5 0.0
0.0006204452643723931 3.755280800340287e-5 0.0
0.0009753714166196191 -0.00012827158877394413 0.0
0.00015266479669326632 -4.699504730386585e-5 0.0
1.922101390297973e-5 -3.935214698267464e-6 0.0
0.001175904545654718 -5.617777412527276e-7 0.0
0.0011525805328957504 1.3123248917540138e-6 0.0
3.03057757724518e-5 -4.140193873693469e-6 0.0
0.0010230113924461354 -0.00011032760288177078 0.0
0.0001084440168840135 -3.3158159119572e-5 0.0
0.0008677876827466769 -9.934014579271303e-5 0.0
0.0005818291315156434 7.838983642193803e-5 0.0
1.4635746979518093e-5 -3.2080091209969e-6 0.0
0.0011796582875513873 -1.015478564381636e-6 0.0
0.0004554872314675966 -0.00012614638197314676 0.0
0.0005133471165707429 -0.0001336580859968233 0.0
0.0006977054218256528 -0.00014071388063589 0.0
0.0005881108543413498 -0.00013462921448907812 0.0
0.0007631056757851272 -0.00014285813824002614 0.0
0.0008388195358025273 -0.00014372369720715774 0.0
0.0003791252080447099 -0.00010143865925963869 0.0
0.000292549821820712 -8.751752544966942e-5 0.0
0.00106121697908276 -9.119571020999669e-5 0.0
7.565275011883734e-5 -2.286407357994463e-5 0.0
0.0011472933802361774 6.627965407707774e-7 0.0
3.936149496146916e-5 -6.245630912987117e-7 0.0
0.0011826842339450123 -1.3015006591527987e-6 0.0
1.3525059554623977e-5 -2.9112879959771988e-6 0.0
0.0008945679833573669 -7.164986471149244e-5 0.0
0.0005638664361215384 0.00011681446907033541 0.0
0.0011365208512672707 -2.1540109159998162e-7 0.0
6.161010015036064e-5 1.204680733723983e-6 0.0
2.26971557060171e-5 -4.578929627046209e-6 0.0
0.0011711217167499144 1.9746131143860042e-7 0.0
0.0007881525469168432 -9.527384355490862e-5 0.0
0.0006478968524735565 6.742468445419778e-6 0.0
4.19568540161236e-5 -1.1782288685728524e-5 0.0
0.0011147143461799035 -5.514013581744225e-5 0.0
0.0007850934371657846 -0.00014351516913647833 0.0
0.0006181866113433036 -0.00013667944890455194 0.0
0.00043685053111225657 -0.0001177267860806316 0.0
0.0003521116845788185 -9.78489626946668e-5 0.0
0.0006748945294064841 -0.00013898894942205358 0.0
0.0008887498051311975 -0.00014508208125229113 0.0
0.0002363986955666954 -7.386012477533586e-5 0.0
0.0009429345935451857 -0.0001386948170015617 0.0
0.00018116459035121544 -5.586085483903118e-5 0.0
0.00012959822254337303 -3.974863501903062e-5 0.0
0.0009983947724994636 -0.00011984458955374782 0.0
0.0003780618445410434 0.00015644421329844973 0.0
0.0010088608067187488 -3.280293683912875e-7 0.0
0.0011820655000708794 -3.6137774143081858e-6 0.0
1.1207750536756565e-5 -2.3972717707861645e-6 0.0
0.0005498548030279861 0.00017718765123320965 0.0
0.0009089597120268404 -2.406326134718239e-5 0.0
8.263018540634707e-5 1.2429154167611712e-5 0.0
0.0011468877352706734 2.302778814343126e-6 0.0
1.843070543374418e-5 -4.678803635472967e-6 0.0
0.0011581943069353137 -2.2185920165753948e-5 0.0
0.0009579922364142021 -5.033061705773556e-7 0.0
0.0009688763439565986 -1.9135057658358654e-5 0.0
0.0010260065945736272 -1.0622948700121079e-5 0.0
0.0009825633726807644 -2.2807808141411013e-5 0.0
0.0009396930555688279 -3.757456066901594e-5 0.0
0.0009434776574136931 -3.570577871784073e-5 0.0
0.0009857373353380407 -2.1454024533072746e-5 0.0
0.0009465164932095183 -2.8965551759972053e-5 0.0
0.0009913060333513232 -1.7224614175599674e-5 0.0
0.0009530202437038897 -2.1448830318715546e-5 0.0
0.0009128795493924539 -3.372550590408093e-5 0.0
0.0009175850579011074 -2.3814069362753313e-5 0.0
0.0008836035179098217 -3.430123612798363e-5 0.0
0.0008866145869333652 -2.435230037573132e-5 0.0
0.0008567999649319703 -3.2876189563286856e-5 0.0
0.0008597597511014516 -2.2048313756145955e-5 0.0
0.0007334781490281828 -5.214869872253257e-5 0.0
0.000711801807199434 -5.685037704824867e-5 0.0
0.0007198765148254884 -4.9576910303073495e-5 0.0
0.0007009547429612624 -5.548213635826061e-5 0.0
0.0007080110794098017 -4.843055296153069e-5 0.0
0.0006911854540243032 -5.32557411633741e-5 0.0
0.0006971874666340161 -4.610949413506872e-5 0.0
0.0006814545487216039 -5.0883810724210774e-5 0.0
0.000687289295239546 -4.425723430408562e-5 0.0
0.0006719261566458998 -4.9577418019676074e-5 0.0
0.0006782002566350191 -4.347571054838053e-5 0.0
0.0006634043476543155 -4.8008999443056946e-5 0.0
0.0006699378684913315 -4.243771753689584e-5 0.0
0.0006559261310534113 -4.6002398262764914e-5 0.0
0.0006624424218068441 -4.075267068293197e-5 0.0
0.0006486327136611934 -4.4081780868706746e-5 0.0
0.0006556128013793554 -3.9445559398152426e-5 0.0
0.0006414387579965237 -4.3000266333420536e-5 0.0
0.0006491416401705731 -3.860129996955036e-5 0.0
0.0006352858209022919 -4.1381410908762056e-5 0.0
0.0006432457388326481 -3.731380278837842e-5 0.0
0.0006295778659122163 -3.991197650409588e-5 0.0
0.0006373510820248949 -3.6261997627807605e-5 0.0
0.0006240917749786472 -3.877733702553002e-5 0.0
0.0006320459162301632 -3.55214554865426e-5 0.0
0.000619266950908349 -3.789005566918375e-5 0.0
0.0006270129353229532 -3.47953754761434e-5 0.0
0.0006140334202581738 -3.7371271211281825e-5 0.0
0.0006220675736650167 -3.437557216358304e-5 0.0
0.0006064782468711889 -3.7555896348582565e-5 0.0
0.0006179984504158762 -3.411404320963045e-5 0.0
0.0006044139693374044 -3.637404268020578e-5 0.0
0.0006136621723619683 -3.389428326492884e-5 0.0
0.0006005381458646313 -3.613413921073085e-5 0.0
0.0006096440560586892 -3.397602727360453e-5 0.0
0.000597211675435969 -3.608663779915813e-5 0.0
0.000605726416367009 -3.425606373786805e-5 0.0
0.0005935044185038529 -3.6283662136102313e-5 0.0
0.000660593000151333 -5.494552340425326e-5 0.0
0.0006019833825237899 -3.4742484132001294e-5 0.0
0.000626453124152548 -4.563525579530767e-5 0.0
0.0005923660205708146 -3.9258139468947936e-5 0.0
0.0005891520742116485 -3.69085837797005e-5 0.0
0.0005983201572595807 -3.549926167774213e-5 0.0
0.000584883860077138 -3.7752304701873095e-5 0.0
0.0005760919711829425 -3.904698300689151e-5 0.0
0.000571439144519797 -3.993225735499368e-5 0.0
0.0005941885202751998 -3.6556119707230294e-5 0.0
0.0006078655128266313 -3.424176908861842e-5 0.0
0.0006262860970305626 -3.1835206229077804e-5 0.0
0.0006039700155988794 -3.5525552624834914e-5 0.0
0.0006186941362236506 -3.301268477630434e-5 0.0
0.0006143891211975082 -3.4688594063392836e-5 0.0
0.0005627731507099191 -4.114343261877769e-5 0.0
0.0005586791740632926 -4.193084202330163e-5 0.0
0.0006297163678171665 -3.207686920325739e-5 0.0
0.0005492496252643043 -4.3164910287124726e-5 0.0
0.0005457935483811395 -4.387451983698919e-5 0.0
0.0006258926823948942 -3.39762576254917e-5 0.0
0.0006406846147087595 -3.1535218883393265e-5 0.0
0.0005355207309460895 -4.509192676543592e-5 0.0
0.0005318263711775382 -4.580714363875724e-5 0.0
0.0006374662076341994 -3.3629590440614233e-5 0.0
0.0006526659826895161 -3.1143389321634924e-5 0.0
0.0005217382394096409 -4.683094295652388e-5 0.0
0.0005178660117280579 -4.7692687474276904e-5 0.0
0.0006496139588078391 -3.3589823725903615e-5 0.0
0.0006651536761294256 -3.0986489580251635e-5 0.0
0.0005080273460152829 -4.849120898054156e-5 0.0
0.0005034186636395533 -4.9385706875066465e-5 0.0
0.0006625158537418668 -3.373591127350607e-5 0.0
0.0006778638604481956 -3.106335637513775e-5 0.0
0.000493014091264232 -4.9978770139956814e-5 0.0
0.0004887761193265197 -5.088096288482028e-5 0.0
0.00047722970887751427 -5.128479318858397e-5 0.0
0.0004816324336708419 -5.062306190014666e-5 0.0
0.0006456221703175963 -3.624760087370825e-5 0.0
0.0006753605920344508 -3.4204149814814654e-5 0.0
0.0006907402112556654 -3.138529382327537e-5 0.0
0.0006935448402914641 -2.8083252132681167e-5 0.0
0.0006495466712815283 -3.3731209551090624e-5 0.0
0.0007067081545357516 -2.8283218120480414e-5 0.0
0.0007097293440509768 -2.4854954745885808e-5 0.0
0.0007231438396552252 -2.486820134626659e-5 0.0
0.0004741487787392533 -5.228041292071295e-5 0.0
0.00046191428996226753 -5.233340903465296e-5 0.0
0.00048550187294364494 -5.214286767318028e-5 0.0
0.000687961953541007 -3.4997565312743154e-5 0.0
0.0004592026096705363 -5.3395077562962495e-5 0.0
0.0004463004357037238 -5.3133061505513845e-5 0.0
0.0006757099358183307 -3.708136991979174e-5 0.0
0.0004438767500718909 -5.411962646607487e-5 0.0
0.00043019265729557043 -5.355724497519645e-5 0.0
0.0004279978734380305 -5.459239414381529e-5 0.0
0.00041380796436972793 -5.369525426348629e-5 0.0
0.00041560277537447437 -5.289900141802497e-5 0.0
0.0003971207698956012 -5.283061596224151e-5 0.0
0.00039923657169445547 -5.211547105818888e-5 0.0
0.0004098285260450048 -5.477616875545188e-5 0.0
0.00037866588917879145 -5.169844340468614e-5 0.0
0.0003806658764156262 -5.121908724327827e-5 0.0
0.0004260172784240355 -5.604991148394743e-5 0.0
0.0004104754144050055 -5.647265949396726e-5 0.0
0.00036017989063090515 -5.0445969070835746e-5 0.0
0.00036131159305166237 -5.0093656255643784e-5 0.0
0.0007265850489290784 -2.150997534808178e-5 0.0
0.0007404405889468679 -2.1413566472485313e-5 0.0
0.0004241527092651555 -5.7870378302166184e-5 0.0
0.00040894733105710057 -5.829675558840446e-5 0.0
0.0007440703925858998 -1.8062627170207225e-5 0.0
0.0007585943741389954 -1.7914913955187744e-5 0.0
0.0007543060394406554 -2.1942623305737866e-5 0.0
0.000772806922449709 -1.8189315016758967e-5 0.0
0.0007689370428164849 -2.2709708957836043e-5 0.0
0.0007878673280466298 -1.8589868856099305e-5 0.0
0.0007850171590437221 -2.3431392156356135e-5 0.0
0.0008050804163485155 -1.873803523197262e-5 0.0
0.0008006888594602096 -2.4035085010376023e-5 0.0
0.000807765055314782 -1.4472430020705498e-5 0.0
0.0008214680638424037 -1.9343004843928665e-5 0.0
0.0008161808388862113 -2.5095538195097134e-5 0.0
0.00042262520540216293 -5.997618800810953e-5 0.0
0.00033933906891970016 -4.8959940260159185e-5 0.0
0.0003399121635059572 -4.8611441567653304e-5 0.0
0.000796988057389658 -3.0337783522989258e-5 0.0
0.0008119496414766829 -3.176024294840475e-5 0.0
0.0008313451009233193 -2.6284195749195947e-5 0.0
0.0007941852880784135 -3.7347836540640293e-5 0.0
0.0004078789852260547 -6.041761505384466e-5 0.0
0.0008272050959994832 -3.3472368382964325e-5 0.0
0.0008466698443059694 -2.7602492216664875e-5 0.0