# vtk DataFile Version 2.0
phase field modeling fracture
ASCII
DATASET UNSTRUCTURED_GRID
POINTS 2538 float
0.0 0.0 0.0
10.0 0.0 0.0
0.0 10.0 0.0
10.0 10.0 0.0
0.0 4.9995 0.0
0.0 5.0005 0.0
5.0 5.0 0.0
0.9416964895726688 0.0 0.0
1.803581725054446 0.0 0.0
2.592419885431098 0.0 0.0
3.314401822861676 0.0 0.0
3.975193910351406 0.0 0.0
4.579982132660152 0.0 0.0
5.133512780936812 0.0 0.0
5.640130319506143 0.0 0.0
6.103810708661955 0.0 0.0
6.528192895506818 0.0 0.0
6.916607540127679 0.0 0.0
7.272102969376355 0.0 0.0
7.597469242948583 0.0 0.0
7.895259826292669 0.0 0.0
8.167811885738017 0.0 0.0
8.417264413845215 0.0 0.0
8.645575169389538 0.0 0.0
8.854535961159101 0.0 0.0
9.045786767735546 0.0 0.0
9.220828555767493 0.0 0.0
9.38103509633881 0.0 0.0
9.527663687265145 0.0 0.0
9.661865124984566 0.0 0.0
9.784692609918062 0.0 0.0
9.897110148790482 0.0 0.0
10.0 0.09999999999992584 0.0
10.0 0.199999999999856 0.0
10.0 0.2999999999997771 0.0
10.0 0.3999999999996677 0.0
10.0 0.4999999999995511 0.0
10.0 0.5999999999994683 0.0
10.0 0.6999999999993983 0.0
10.0 0.7999999999993286 0.0
10.0 0.8999999999992587 0.0
10.0 0.9999999999991888 0.0
10.0 1.099999999999119 0.0
10.0 1.199999999999033 0.0
10.0 1.299999999998852 0.0
10.0 1.399999999998576 0.0
10.0 1.499999999998284 0.0
10.0 1.599999999997992 0.0
10.0 1.6999999999977 0.0
10.0 1.799999999997408 0.0
10.0 1.899999999997116 0.0
10.0 1.999999999996825 0.0
10.0 2.099999999996533 0.0
10.0 2.199999999996241 0.0
10.0 2.299999999995949 0.0
10.0 2.399999999995657 0.0
10.0 2.499999999995365 0.0
10.0 2.599999999995073 0.0
10.0 2.699999999994782 0.0
10.0 2.79999999999449 0.0
10.0 2.899999999994198 0.0
10.0 2.999999999993906 0.0
10.0 3.099999999993614 0.0
10.0 3.199999999993322 0.0
10.0 3.299999999993029 0.0
10.0 3.399999999992738 0.0
10.0 3.499999999992446 0.0
10.0 3.599999999992154 0.0
10.0 3.699999999991863 0.0
10.0 3.799999999991571 0.0
10.0 3.899999999991278 0.0
10.0 3.999999999991022 0.0
10.0 4.099999999991035 0.0
10.0 4.199999999991187 0.0
10.0 4.299999999991338 0.0
10.0 4.399999999991491 0.0
10.0 4.499999999991642 0.0
10.0 4.599999999991795 0.0
10.0 4.699999999991947 0.0
10.0 4.799999999992099 0.0
10.0 4.89999999999225 0.0
10.0 4.999999999992403 0.0
10.0 5.099999999992555 0.0
10.0 5.199999999992706 0.0
10.0 5.299999999992858 0.0
10.0 5.39999999999301 0.0
10.0 5.499999999993161 0.0
10.0 5.599999999993313 0.0
10.0 5.699999999993466 0.0
10.0 5.799999999993618 0.0
10.0 5.899999999993771 0.0
10.0 5.999999999993922 0.0
10.0 6.099999999994074 0.0
10.0 6.199999999994227 0.0
10.0 6.299999999994378 0.0
10.0 6.39999999999453 0.0
10.0 6.499999999994682 0.0
10.0 6.599999999994833 0.0
10.0 6.699999999994986 0.0
10.0 6.799999999995138 0.0
10.0 6.899999999995289 0.0
10.0 6.999999999995442 0.0
10.0 7.099999999995594 0.0
10.0 7.199999999995747 0.0
10.0 7.299999999995897 0.0
10.0 7.39999999999605 0.0
10.0 7.499999999996202 0.0
10.0 7.599999999996353 0.0
10.0 7.699999999996505 0.0
10.0 7.799999999996658 0.0
10.0 7.899999999996808 0.0
10.0 7.999999999996962 0.0
10.0 8.099999999997113 0.0
10.0 8.199999999997265 0.0
10.0 8.299999999997418 0.0
10.0 8.399999999997569 0.0
10.0 8.499999999997721 0.0
10.0 8.599999999997873 0.0
10.0 8.699999999998024 0.0
10.0 8.799999999998176 0.0
10.0 8.899999999998329 0.0
10.0 8.99999999999848 0.0
10.0 9.099999999998634 0.0
10.0 9.199999999998786 0.0
10.0 9.299999999998937 0.0
10.0 9.399999999999089 0.0
10.0 9.499999999999241 0.0
10.0 9.599999999999392 0.0
10.0 9.699999999999545 0.0
10.0 9.799999999999697 0.0
10.0 9.899999999999848 0.0
9.897110148790565 10.0 0.0
9.784692609918244 10.0 0.0
9.66186512498486 10.0 0.0
9.527663687265571 10.0 0.0
9.381035096339392 10.0 0.0
9.220828555768257 10.0 0.0
9.045786767736512 10.0 0.0
8.854535961160305 10.0 0.0
8.645575169391027 10.0 0.0
8.417264413847017 10.0 0.0
8.167811885740178 10.0 0.0
7.895259826295246 10.0 0.0
7.597469242951631 10.0 0.0
7.272102969379938 10.0 0.0
6.916607540131873 10.0 0.0
6.528192895511704 10.0 0.0
6.103810708667616 10.0 0.0
5.640130319512691 10.0 0.0
5.13351278094435 10.0 0.0
4.579982132668816 10.0 0.0
3.975193910361222 10.0 0.0
3.314401822869852 10.0 0.0
2.592419885437257 10.0 0.0
1.803581725058137 10.0 0.0
0.9416964895740705 10.0 0.0
0.0 9.00010000000243 0.0
0.0 8.000200000005481 0.0
0.0 7.000300000005135 0.0
0.0 6.000400000002569 0.0
0.901790731451151 5.000409820926855 0.0
1.657200899774397 5.000334279910023 0.0
2.289991063707192 5.000271000893629 0.0
2.820065163538221 5.000217993483646 0.0
3.264096435579811 5.000173590356442 0.0
3.636051481595835 5.00013639485184 0.0
3.947629914072366 5.000105237008593 0.0
4.208632181002628 5.0000791367819 0.0
4.427267949625672 5.000057273205037 0.0
4.610414277633563 5.000038958572237 0.0
4.763831845154243 5.000023616815485 0.0
4.892346298799659 5.00001076537012 0.0
4.892346298799748 4.99998923462988 0.0
4.763831845154455 4.999976383184515 0.0
4.610414277633943 4.999961041427763 0.0
4.427267949626277 4.999942726794963 0.0
4.208632181003523 4.9999208632181 0.0
3.94762991407365 4.999894762991407 0.0
3.636051481597624 4.99986360514816 0.0
3.264096435582253 4.999826409643559 0.0
2.820065163541503 4.999782006516354 0.0
2.289991063711534 4.999728999106371 0.0
1.657200899778495 4.999665720089978 0.0
0.9017907314530094 4.999590179073145 0.0
0.0 3.999600000002013 0.0
0.0 2.999700000005187 0.0
0.0 1.99980000000512 0.0
0.0 0.9999000000025537 0.0
9.897889398521345 2.93573355845387 0.0
9.906568249974548 7.060009441434234 0.0
9.913122631074113 3.64016132281653 0.0
9.922462129543863 6.354535290629151 0.0
9.917693659967533 4.354211663134567 0.0
9.909873057440208 5.637584487339942 0.0
9.914183254994697 4.950672966925282 0.0
9.913885043715895 7.666887930262611 0.0
9.91009668007573 2.351889069770817 0.0
9.905135696074536 8.138152454502785 0.0
9.913397459621809 1.849999999997262 0.0
7.099302372137626 0.297750452375005 0.0
7.095143729410097 9.700359990366296 0.0
4.942912558701401 5.095838627899509 0.0
4.315009232304429 5.165022115481685 0.0
4.946182472483878 4.906763777264103 0.0
4.317967462990024 4.825955043772673 0.0
9.916390871492647 8.64999999999792 0.0
9.921504649680616 1.368376469890358 0.0
8.292538149791614 0.206877570318844 0.0
8.292538149793597 9.793122429681448 0.0
5.884594439766573 9.587645267048616 0.0
5.794826292691579 0.3794853783929359 0.0
9.913397459621425 9.049999999998557 0.0
9.908526577714177 0.9568239351922434 0.0
3.456851160380649 5.315740054130451 0.0
3.457889657868442 4.707121019609468 0.0
8.945214200703926 0.1503383337970344 0.0
8.950161364448409 9.8413906539257 0.0
9.913862335499305 4.055887885208452 0.0
9.916697353372683 4.650158482607802 0.0
9.919076340414442 6.049999999994006 0.0
9.906994308667635 5.25749687748192 0.0
9.917490342358025 6.655979201891897 0.0
9.915757520293784 7.343848891656911 0.0
9.910049507471042 3.363474386285078 0.0
9.914471988502868 2.647400064832979 0.0
9.91474124160965 9.337490423485129 0.0
9.916971008170838 0.6499999999994355 0.0
4.307157269264427 9.509674045029644 0.0
4.331527375865619 0.4401616696422582 0.0
9.45434939180249 9.878397030523757 0.0
9.457696120412969 0.1270877537061785 0.0
2.555070293622606 5.422044496190925 0.0
2.566232917480916 4.608001224030952 0.0
3.026511860837692 9.332320638257093 0.0
2.945561971800619 0.5895662714727601 0.0
7.7395404387124 0.2511088946967771 0.0
7.736379255744154 9.745848826372828 0.0
4.687135269408529 5.122111433928926 0.0
4.688420821504113 4.871895064967488 0.0
9.910554884115975 0.3448356354522978 0.0
9.911230082250466 9.65764729394159 0.0
9.921953841410854 6.851023993342036 0.0
9.912065178606017 5.448170483544033 0.0
9.911660025326261 3.861846960030188 0.0
9.914847467973438 3.14501593945607 0.0
9.913397459621425 5.849999999993703 0.0
9.913397459621425 7.849999999996735 0.0
9.906916878988277 2.15455769998631 0.0
9.913397459621425 8.349999999997479 0.0
9.909472363117661 1.640528221515488 0.0
9.913987325695956 1.152857110636247 0.0
9.913397459621425 8.849999999998241 0.0
0.9100099990995943 2.614215977520411 0.0
0.8395284981715456 7.451196254860987 0.0
9.723278867451556 9.898135916635193 0.0
9.723316350887044 0.09841820909386662 0.0
1.385819164827588 4.454539963646463 0.0
1.338343629665047 5.523111536005823 0.0
1.377179700550677 0.6809168304959698 0.0
1.418060461092743 9.285896715136046 0.0
9.91268220142518 0.1457914080939694 0.0
9.906737126737994 9.845745933882352 0.0
0.7108351382691361 6.537941170074089 0.0
1.527735020267026 6.915620208855231 0.0
1.630993885659103 7.838271825205868 0.0
2.232760943566823 7.370850737296832 0.0
2.243414218068206 6.688299277952821 0.0
2.779655053105118 7.021588754814074 0.0
2.80227799359795 7.632420170547022 0.0
3.282022065908813 7.305859666021318 0.0
3.327597298795347 7.857554136825748 0.0
3.743210251018715 7.549183328204379 0.0
3.716353232200752 7.062036086888612 0.0
4.111978858674101 7.27497101169417 0.0
4.104192177581432 6.879858986267289 0.0
4.436230765617037 7.045693351607117 0.0
4.430360014817357 6.703971783962796 0.0
4.732390145036301 6.849841042423394 0.0
5.056161327708878 5.095276573498806 0.0
5.111586796021131 4.999081142133581 0.0
5.169267363407189 5.09444870412406 0.0
5.223795108752053 4.996986220359468 0.0
5.281480803887719 5.092780870372803 0.0
5.335670761900611 4.994887492556936 0.0
5.393485214772442 5.090486192743301 0.0
5.447323082877892 4.992601527033996 0.0
5.505243219343024 5.087953380710069 0.0
5.558739102026105 4.990287787962959 0.0
5.616491581184779 5.085335255235766 0.0
5.669852346908056 4.9879269227514 0.0
5.727502713908907 5.082679981817038 0.0
5.780766004135139 4.988313988715834 0.0
5.838244881129535 5.080480568766611 0.0
5.891357695677371 4.986433849408193 0.0
5.948696036767613 5.077969900389505 0.0
6.001601341641615 4.981313698556656 0.0
6.058851024265095 5.074871552128682 0.0
6.111614020704875 4.978360695880202 0.0
6.168801161530775 5.072044953270978 0.0
6.221368818778567 4.975825765213497 0.0
6.278268309066882 5.066182320461055 0.0
6.330814273567539 4.972837984645718 0.0
6.387565032421376 5.062889771971895 0.0
6.437476667631405 4.971693683589553 0.0
[...]
POINT_DATA 2538
VECTORS disp float
8.063469854909479e-13 7.138236606608616e-13 0.0
7.556043193463746e-13 -7.315523353282694e-13 0.0
0.00019999999982007988 2.670470565007391e-13 0.0
0.00019999999748772308 -2.4070716313181855e-12 0.0
9.722639391716838e-5 3.235764567881135e-5 0.0
0.00014940891155414523 6.142696593073021e-6 0.0
0.0001305373359493967 -3.923317234555765e-6 0.0
-1.0587976133085504e-13 -3.2901180067811423e-14 0.0
2.8698221165212116e-14 1.0656202173964821e-13 0.0
5.369845268727838e-14 -7.016595145607156e-14 0.0
4.832267605058907e-14 -1.1952174869803476e-14 0.0
5.848097312611646e-15 -3.677836807480904e-14 0.0
8.202164904200694e-15 -8.944840982688222e-14 0.0
6.9699076916105796e-15 -1.4936726398543383e-13 0.0
1.3442991630706778e-14 -1.7083909097882478e-13 0.0
-5.473495368585258e-15 -1.5748907596227855e-13 0.0
6.892024879671314e-15 -1.2737164120883715e-13 0.0
-4.208331416974374e-15 -1.1227731001572142e-13 0.0
-1.0769817590731474e-14 -1.1012017647078366e-13 0.0
-1.1012618000644434e-14 -1.0408397040199568e-13 0.0
-2.192433533455185e-14 -7.658370775389958e-14 0.0
-1.9895348987933578e-14 -7.677731120144823e-14 0.0
-3.240413607162989e-14 -6.761371385854497e-14 0.0
-3.791275232583181e-14 -8.77308923616367e-14 0.0
-2.722338104840766e-14 -1.1329626230782121e-13 0.0
-3.1890459501108633e-14 -1.2519802270849072e-13 0.0
-2.2253538105519108e-14 -1.367918975316811e-13 0.0
4.4605953753787305e-15 -1.368600467323878e-13 0.0
2.4276819169627735e-14 -1.3152931069410635e-13 0.0
2.141523425121235e-14 -1.414340200729994e-13 0.0
1.2380903224432504e-13 -1.4161299606255127e-13 0.0
-9.598345781382146e-14 -3.3561452009489026e-14 0.0
2.686790956053546e-6 -1.193539404652979e-6 0.0
4.214167171297165e-6 -2.0920935000036117e-6 0.0
5.665629170039784e-6 -2.8828481037879874e-6 0.0
6.993707850170094e-6 -3.677000689182217e-6 0.0
8.208793601028112e-6 -4.477361261430429e-6 0.0
9.381635133843573e-6 -5.313645690470492e-6 0.0
1.0558058999567594e-5 -6.155707407669146e-6 0.0
1.1712325249719673e-5 -7.0166318042014046e-6 0.0
1.2873796926227344e-5 -7.901423056515183e-6 0.0
1.4044567548519296e-5 -8.789551294276648e-6 0.0
1.5235697078068358e-5 -9.699886891413527e-6 0.0
1.6456043273041627e-5 -1.0620480339825085e-5 0.0
1.7692791833712324e-5 -1.1549088904550157e-5 0.0
1.8979240049548533e-5 -1.2506191957002706e-5 0.0
2.0307807859564642e-5 -1.347784214546377e-5 0.0
2.165747214455876e-5 -1.44546669201356e-5 0.0
2.305963383502663e-5 -1.5433003411701138e-5 0.0
2.4500566605060755e-5 -1.6401812887636917e-5 0.0
2.599281510144941e-5 -1.7388307085079323e-5 0.0
2.7554436397128887e-5 -1.83896081097022e-5 0.0
2.9176793066326247e-5 -1.9398284802428592e-5 0.0
3.085732085930892e-5 -2.0420719697373567e-5 0.0
3.260967401071959e-5 -2.1470642853208514e-5 0.0
3.443329584176788e-5 -2.2517872673871298e-5 0.0
3.636016647901099e-5 -2.3585921926951154e-5 0.0
3.8351392888579376e-5 -2.4649324630541474e-5 0.0
4.0427777817067886e-5 -2.57258120337699e-5 0.0
4.2624959794125e-5 -2.6801465621153233e-5 0.0
4.4943820392727256e-5 -2.7931023641207123e-5 0.0
4.7354656736697e-5 -2.9043385943066686e-5 0.0
4.9923106296801334e-5 -3.0161054301854955e-5 0.0
5.258703779525158e-5 -3.1260407832743314e-5 0.0
5.5419569936928665e-5 -3.236721649781532e-5 0.0
5.8453034138780294e-5 -3.345702608226165e-5 0.0
6.166225771930008e-5 -3.4554190582295694e-5 0.0
6.501030165884438e-5 -3.560007184277169e-5 0.0
6.859294103647804e-5 -3.656294824848668e-5 0.0
7.239507690951077e-5 -3.741725743704018e-5 0.0
7.640377003182406e-5 -3.814162597247795e-5 0.0
8.06297065860499e-5 -3.8764813858339286e-5 0.0
8.501159591331825e-5 -3.919211478386479e-5 0.0
8.958237719183771e-5 -3.9469447634496274e-5 0.0
9.430402286136015e-5 -3.946867691999762e-5 0.0
9.908161394473248e-5 -3.928080787011441e-5 0.0
0.00010387463393870386 -3.881227213429029e-5 0.0
0.00010851962551225279 -3.8126869482317905e-5 0.0
0.00011291617014703696 -3.725981933845518e-5 0.0
0.00011683312771926455 -3.6293217237703296e-5 0.0
0.00011996886021866301 -3.549308761968846e-5 0.0
0.00012221347928775754 -3.506796589865068e-5 0.0
0.00012412990555782635 -3.4529739140737366e-5 0.0
0.00012603572489448454 -3.360538008270405e-5 0.0
0.00012788613083445217 -3.260944405597122e-5 0.0
0.00012974173150316452 -3.171303326766729e-5 0.0
0.00013152733569789753 -3.094211430039006e-5 0.0
0.0001332649064002134 -3.029860962403278e-5 0.0
0.00013499480333630567 -2.9735490065648302e-5 0.0
0.00013668001842382087 -2.929111715490954e-5 0.0
0.00013833038146790646 -2.8921258329633326e-5 0.0
0.00013996690175360754 -2.862146730693411e-5 0.0
0.0001415845393815203 -2.8380839389704102e-5 0.0
0.00014317795818154146 -2.818783093397418e-5 0.0
0.00014474375529202653 -2.8033835892103826e-5 0.0
0.0001462933049154312 -2.7907149957888662e-5 0.0
0.00014782669725480713 -2.779722345361079e-5 0.0
0.00014933728555430872 -2.7710972179933972e-5 0.0
0.0001508164801069669 -2.7624462275269813e-5 0.0
0.00015226843195780384 -2.7537672261753444e-5 0.0
0.000153704866085156 -2.7441968276596747e-5 0.0
0.00015512487965755773 -2.7339572969792028e-5 0.0
0.0001565112842334618 -2.722399541109913e-5 0.0
0.0001578862390387644 -2.708588967752654e-5 0.0
0.00015921818754920602 -2.6927770642825085e-5 0.0
0.00016051713634349774 -2.674216952139786e-5 0.0
0.00016180072668623216 -2.6515819940252155e-5 0.0
0.00016303528679019133 -2.6251397111585328e-5 0.0
0.00016425806086026894 -2.5955697700666794e-5 0.0
0.00016545097681142416 -2.5629032241226265e-5 0.0
0.000166631000854198 -2.527797165745123e-5 0.0
0.0001677659698640406 -2.485442763088802e-5 0.0
0.0001688976902328863 -2.4404494290137296e-5 0.0
0.00016999428725951484 -2.3917176254278227e-5 0.0
0.00017108608351265337 -2.3397591240080748e-5 0.0
0.0001721773144673016 -2.28359908880615e-5 0.0
0.0001732464938742289 -2.2233028277079936e-5 0.0
0.0001743096527170018 -2.1595717364522317e-5 0.0
0.00017538429819636642 -2.09044080059109e-5 0.0
0.0001764458878139891 -2.0175811772809918e-5 0.0
0.00017753819050409149 -1.9406322478784477e-5 0.0
0.00017866554053995784 -1.8585246035854707e-5 0.0
0.00017980666906897995 -1.7698735221230318e-5 0.0
0.0001809436532108116 -1.674991016117145e-5 0.0
0.00018214139500207015 -1.577618118928369e-5 0.0
0.0001833985579423422 -1.4764878366556365e-5 0.0
0.00018481927513475197 -1.364703756706482e-5 0.0
0.00018650428040780073 -1.2217410314737928e-5 0.0
0.0001885642258536756 -1.0291059600058792e-5 0.0
0.00019130079075545026 -7.927691385404544e-6 0.0
0.00019464665857111017 -4.577499699009162e-6 0.0
0.00020000000032636175 2.9005700781406926e-13 0.0
0.00019999999958383733 -4.4389270074090693e-13 0.0
0.00019999999984528395 -1.3887813331424602e-13 0.0
0.00019999999976904096 -1.7987883999888423e-13 0.0
0.0001999999998353004 -1.441229283901154e-13 0.0
0.00019999999985330133 -1.1223048266794236e-13 0.0
0.00019999999987944142 -9.179709853827832e-14 0.0
0.00019999999990885767 -6.605444814955093e-14 0.0
0.00019999999992639886 -3.412629319417114e-14 0.0
0.00019999999994449878 1.162280994031682e-14 0.0
0.000199999999959234 4.540596884478357e-14 0.0
0.0001999999999568851 1.0676517862020386e-13 0.0
0.00019999999996357285 1.3687255740277992e-13 0.0
0.0001999999999667702 1.638816143939118e-13 0.0
0.00019999999997372236 1.7021556872711462e-13 0.0
0.00019999999998065356 1.6907651226100733e-13 0.0
0.0001999999999902104 1.4943722984485469e-13 0.0
0.0001999999999842725 1.4237569851622765e-13 0.0
0.00020000000001631563 1.0879529444193004e-13 0.0
0.00019999999999196412 8.984925012128957e-14 0.0
0.00020000000000177623 6.2376451937155e-14 0.0
0.00020000000000807593 4.3054553206128355e-14 0.0
0.00020000000000902233 5.3060080073254546e-14 0.0
0.00019999999999810772 4.240469309844177e-14 0.0
0.0002000000000656415 -1.3940005042640158e-13 0.0
0.00018643131388376856 5.047178127897883e-6 0.0
0.00017425430743271296 7.097226382717434e-6 0.0
0.00016219356930678063 7.26746806593025e-6 0.0
0.00015432978650938703 6.584545412475416e-6 0.0
0.00015045915210630322 2.518005627805158e-6 0.0
0.00015060797576512468 4.09254635521361e-7 0.0
0.00015038327383343564 -1.4163907937899722e-6 0.0
0.00014978635004617255 -2.6994841261172382e-6 0.0
0.00014881577418883072 -3.4821925770676813e-6 0.0
0.00014767788970065552 -3.850452701426799e-6 0.0
0.00014636741711417475 -3.784867838775941e-6 0.0
0.00014513486680159648 -2.870729823334924e-6 0.0
0.00014337779480292866 -2.070206907912384e-6 0.0
0.00014139706763305348 -1.7975406481964771e-6 0.0
0.00013913232161168765 -1.214376447258138e-6 0.0
0.0001356293849063473 -2.1068196485133325e-6 0.0
0.0001254020779308826 -2.9743562468926242e-6 0.0
0.00012120693739559775 -2.2143792584070555e-6 0.0
0.00011712418383163051 -1.6658797962469647e-6 0.0
0.00011321138840712787 -9.261756198368892e-7 0.0
0.00010929694685241919 -1.9492573634623467e-7 0.0
0.0001057276007257784 5.73132540558378e-7 0.0
0.00010231608791447624 1.2574582786827698e-6 0.0
9.940071340583529e-5 1.6097857739241974e-6 0.0
9.725476712357286e-5 2.16273734830105e-6 0.0
9.604367593454862e-5 3.1294397212096356e-6 0.0
9.622524638845992e-5 5.7029001891993075e-6 0.0
9.677195226020821e-5 1.5348593230031866e-5 0.0
7.381573602921441e-5 3.611282728100303e-5 0.0
4.8862072736930087e-5 3.3098940804083334e-5 0.0
3.2126419991829215e-5 2.6321654730307707e-5 0.0
1.930179739257292e-5 1.5707434661597094e-5 0.0
4.4797501691397164e-5 -2.6021408139430385e-5 0.0
0.0001560562726697897 -2.5861706652115155e-5 0.0
6.573880114055694e-5 -3.2958717583225105e-5 0.0
0.00014568035731150908 -2.670954264967694e-5 0.0
9.702529011584919e-5 -3.552705189350671e-5 0.0
0.00013441118665802698 -2.8534244480472462e-5 0.0
0.00012129082665510401 -3.294009242045168e-5 0.0
0.00016409129984507216 -2.4868682143168807e-5 0.0
3.2705350085260876e-5 -2.05409554136026e-5 0.0
0.00016974750821309757 -2.2997721236916026e-5 0.0
2.4477189244560245e-5 -1.5796532361696087e-5 0.0
1.0200669509630269e-6 -2.5885030293823616e-7 0.0
0.00019801276280506918 2.6118308131255904e-7 0.0
0.00013712230690127023 -3.8258874633816434e-7 0.0
0.00014355188485897863 -1.1813180584461755e-6 0.0
0.00012193193463678442 -1.4689699460086083e-6 0.0
0.00010953728888166711 1.869758163609471e-6 0.0
0.00017539179093370764 -2.0170986540673513e-5 0.0
1.7887013789653e-5 -1.1394941426863125e-5 0.0
8.062102516884233e-7 -2.410034561640745e-7 0.0
0.00019874921149658833 -1.4892406064407654e-7 0.0
0.00019695171398849203 3.858998290063632e-7 0.0
1.8101510301837906e-6 -3.502874606923027e-7 0.0
0.00017996362767028743 -1.694257910867248e-5 0.0
1.2800203633469708e-5 -7.608830701602069e-6 0.0
0.00014847550401643885 -2.5856437118529047e-6 0.0
9.960658661515727e-5 3.2068235300833675e-6 0.0
8.572486134538525e-7 -3.1579298095990767e-7 0.0
0.0001989109648996524 -3.5521097384021465e-7 0.0
8.278927264091594e-5 -3.530405458197251e-5 0.0
0.00011122452320717049 -3.420367310163171e-5 0.0
0.00014096125477083848 -2.7160090824576563e-5 0.0
0.00012795503776201754 -3.123727053046893e-5 0.0
0.0001502290637455622 -2.6367419517936578e-5 0.0
0.00015992934804621084 -2.563273127023588e-5 0.0
5.6483154845222644e-5 -3.044924979565468e-5 0.0
3.851873364575343e-5 -2.3525886175552494e-5 0.0
0.00018345352291012368 -1.4084120543662467e-5 0.0
9.33373046138899e-6 -5.052175840579115e-6 0.0
0.00019603537927946163 3.037097772315083e-7 0.0
2.6882560753664906e-6 1.916590817264287e-7 0.0
0.00019892188695817272 -4.105152540261986e-7 0.0
1.2069822089067059e-6 -3.5667386023060583e-7 0.0
0.0001511720215034978 -1.4930047386633369e-6 0.0
9.449986889837613e-5 3.475107444430674e-6 0.0
0.00019390025013637862 3.2625281457561764e-7 0.0
4.381688868631555e-6 4.806437912795395e-7 0.0
8.326843663228368e-7 -2.729873005698709e-7 0.0
0.00019840492955631648 8.067229020027553e-8 0.0
0.0001400049509542891 7.016694522084143e-8 0.0
0.00011653592720350708 2.9089857128359346e-7 0.0
5.6188635569219005e-6 -2.4724565772693878e-6 0.0
0.000189455815419311 -8.920207083422444e-6 0.0
0.00015306946909719455 -2.6284941449037812e-5 0.0
0.0001312660459973959 -2.9786783464101594e-5 0.0
7.436210655779995e-5 -3.439672234634655e-5 0.0
5.03009799190803e-5 -2.8511891657471655e-5 0.0
0.00013781435499571993 -2.766010068198323e-5 0.0
0.0001663253142742376 -2.4286475061058133e-5 0.0
2.923312104685177e-5 -1.858510711114428e-5 0.0
0.0001720875301016721 -2.200229411238886e-5 0.0
2.142212461103319e-5 -1.3796846986973275e-5 0.0
1.5161582636232095e-5 -9.379622254562594e-6 0.0
0.00017762647492954408 -1.8642939134675783e-5 0.0
3.784202158726036e-5 1.3960316814534148e-5 0.0
0.00016758252269508827 1.417227483891384e-6 0.0
0.00019890042017028697 -4.654385685552082e-7 0.0
1.2820629998479847e-6 -3.1699526087305184e-7 0.0
8.877836653636121e-5 9.036955832419029e-6 0.0
0.00015219575001883753 1.2880982645481202e-6 0.0
4.827419058581484e-6 1.724660511352232e-6 0.0
0.0001928876013481595 1.8255617532357792e-7 0.0
2.7408172481556846e-6 -9.236727967624929e-7 0.0
0.00019590756721894902 -3.0047383189544677e-6 0.0
0.0001578979324283343 2.337267390633769e-6 0.0
0.0001612381847433978 1.2939903268089881e-6 0.0
0.00017301507669275254 9.987985785550507e-7 0.0
0.00016668908078241632 8.706232818279042e-7 0.0
0.00015826067706886627 5.707300001319651e-7 0.0
0.00016172981215926936 7.016612962219199e-7 0.0
0.00017008888454614706 8.568425337857535e-7 0.0
0.00016525970924548644 8.872333638175026e-7 0.0
0.00017325955786109967 8.876497897236675e-7 0.0
0.0001686554019702447 1.1425095290345194e-6 0.0
0.0001616309800835284 1.1506292866058913e-6 0.0
0.00016455501205558628 1.3776200264763063e-6 0.0
0.00015898666846352527 1.392338662696785e-6 0.0
0.00016119553950331745 1.6198831290615162e-6 0.0
0.00015651957413678115 1.6133163808801663e-6 0.0
0.00015837377210784788 1.7599060481218764e-6 0.0
0.00013531306035785085 -3.428602452087565e-6 0.0
0.0001304695758929398 -4.169820174179943e-6 0.0
0.00013434484081753466 -3.7713290350770044e-6 0.0
0.00013021168082269854 -4.241697972045429e-6 0.0
0.00013358149944866913 -3.799790191301738e-6 0.0
0.0001299206766725489 -4.077274458647397e-6 0.0
0.00013296890483622864 -3.7070453402037e-6 0.0
0.00012953828925507525 -3.948020318524981e-6 0.0
0.00013240075771036328 -3.54684949170109e-6 0.0
0.00012912353844832854 -3.7246820472023027e-6 0.0
0.0001318826539536003 -3.3261114017640826e-6 0.0
0.0001287175754975793 -3.469751246364521e-6 0.0
0.0001314054514950879 -3.149351180356618e-6 0.0
0.0001284325186746029 -3.2394750214775296e-6 0.0
0.00013097345639556478 -2.9468583548250686e-6 0.0
0.00012804579127883827 -3.0351550905174907e-6 0.0
0.00013055431341402234 -2.788747123626895e-6 0.0
0.00012757248264076446 -2.8914189894062642e-6 0.0
0.00013014050331673012 -2.6666149852012123e-6 0.0
0.0001272012716724917 -2.7485198508830715e-6 0.0
0.00012975615052431024 -2.5581860810831737e-6 0.0
0.00012685805558611949 -2.635246540483111e-6 0.0
0.00012931288003649092 -2.477168638304421e-6 0.0
0.0001265073578996286 -2.5703019735292186e-6 0.0
0.00012894602607983635 -2.450158108769971e-6 0.0
0.00012623811693851929 -2.542770429718853e-6 0.0
0.00012860879532211922 -2.4350170194975908e-6 0.0
0.0001257871571012756 -2.5483356681511645e-6 0.0
0.000128250799309524 -2.4569841422553574e-6 0.0
0.00012473119107448669 -2.6145115686210104e-6 0.0
0.00012805288234241528 -2.5327037744198105e-6 0.0
0.00012513791826762035 -2.652642729124387e-6 0.0
0.00012771332070963523 -2.6175579050487673e-6 0.0
0.00012495436841264364 -2.7705319325584643e-6 0.0
0.0001274221576917442 -2.7574794483292526e-6 0.0
0.00012486914018277733 -2.912994058079688e-6 0.0
0.00012712980575355648 -2.9082287688189162e-6 0.0
0.00012464134250285254 -3.075121815259276e-6 0.0
0.00012427951766960443 -3.955834657909424e-6 0.0
0.00012684525544522362 -3.097132366180228e-6 0.0
0.00012345359725056962 -2.900189863627704e-6 0.0
0.00012132427934720622 -2.7203567121280357e-6 0.0
0.00012421531043637133 -3.2907459921413487e-6 0.0
0.00012655321129549115 -3.3326484436045953e-6 0.0
0.00012380209680413847 -3.546593332822012e-6 0.0
0.00012104846205556325 -3.4579552482465887e-6 0.0
0.0001205572965506138 -3.736989021890905e-6 0.0
0.00012616888039874283 -3.6135399221751266e-6 0.0
0.00012857016340200912 -3.3751211067798702e-6 0.0
0.00012990384240419147 -2.463405603187463e-6 0.0
0.00012822903884452427 -3.68209928919333e-6 0.0
0.00013049830565364334 -3.400031916547116e-6 0.0
0.00013010657787702613 -3.761006101142881e-6 0.0
0.00011741823686805741 -3.619530075387815e-6 0.0
0.0001170363201300411 -3.901171123635314e-6 0.0
0.0001322583343214665 -3.4498243148261454e-6 0.0
0.00011318072982770155 -3.7613146905741202e-6 0.0
0.0001130186637028964 -4.0614338628478385e-6 0.0
0.00013193143939989465 -3.837898600038259e-6 0.0
0.0001338845957053586 -3.540131585672716e-6 0.0
0.00010847437745702427 -3.899944713247145e-6 0.0
0.00010820603522534547 -4.2094922784796615e-6 0.0
0.00013362576852983223 -3.95062971471328e-6 0.0
0.0001355386760435239 -3.632538855406547e-6 0.0
0.0001033357159453864 -4.0294864769683905e-6 0.0
0.00010294982876739928 -4.3870806219043565e-6 0.0
0.00013529176638223898 -4.091830784862771e-6 0.0
0.00013719168905984737 -3.742699871420822e-6 0.0
9.789190184280759e-5 -4.1593705057550405e-6 0.0
9.707384249787535e-5 -4.5407126119467945e-6 0.0
0.00013698364310048178 -4.2439773870096746e-6 0.0
0.0001388461352935719 -3.873411640636891e-6 0.0
9.163830926807467e-5 -4.298812998804793e-6 0.0
9.089835858438168e-5 -4.703615171426781e-6 0.0
8.492766551560781e-5 -4.4640456312311155e-6 0.0
8.570472923438225e-5 -4.044811238831704e-6 0.0
0.00013490365445586956 -4.582434680687587e-6 0.0
0.00013864337890837268 -4.433315869326529e-6 0.0
0.0001405181911026084 -4.032749577869945e-6 0.0
0.00014074629236376191 -3.4666346083666617e-6 0.0
0.0001314719599658022 -2.370159153361108e-6 0.0
0.0001424740291582972 -3.607016524820342e-6 0.0
0.000142713591370458 -3.0342503056532834e-6 0.0
0.00014449621261523166 -3.1445624268704324e-6 0.0
8.465582203080825e-5 -4.895979625757002e-6 0.0
7.825455810091889e-5 -4.604465867223655e-6 0.0
9.053963673709921e-5 -5.1446999605935455e-6 0.0
0.00014027504483650526 -4.666742382983772e-6 0.0
7.80775908289646e-5 -5.033923872785518e-6 0.0
7.193919708959093e-5 -4.706147934272227e-6 0.0
0.00013329882215944996 -2.794986675835234e-6 0.0
7.177475021740379e-5 -5.116747075261273e-6 0.0
6.606851136032945e-5 -4.769140604189122e-6 0.0
6.595097830633663e-5 -5.1838714356658495e-6 0.0
6.072038147698959e-5 -4.789849400498326e-6 0.0
6.069166035406026e-5 -4.415935904279489e-6 0.0
5.5673005404361875e-5 -4.437071142667836e-6 0.0
5.570338476847548e-5 -4.049697973681933e-6 0.0
6.004063610407759e-5 -5.181103650350367e-6 0.0
5.0708205285243316e-5 -4.070460604955791e-6 0.0
5.0704610926090364e-5 -3.667883682603713e-6 0.0
6.588725016102804e-5 -5.626134239055354e-6 0.0
6.0857526070525416e-5 -5.661411865014112e-6 0.0
4.6203332777338595e-5 -3.6666024944361594e-6 0.0
4.605296332096115e-5 -3.283292513600403e-6 0.0
0.0001447784357997613 -2.5871650037093784e-6 0.0
0.0001466463858196111 -2.6789629207471392e-6 0.0
6.582024356684218e-5 -6.108675257650314e-6 0.0
6.089738074037636e-5 -6.134716907333577e-6 0.0
0.00014694234413731804 -2.1250178936970975e-6 0.0
0.00014892792372542013 -2.2050096001528176e-6 0.0
0.0001485481095894397 -2.8759495415494714e-6 0.0
0.0001508939129713862 -2.352195047171815e-6 0.0
0.0001505551346045488 -3.117111094837629e-6 0.0
0.00015295384144824636 -2.5222615003314652e-6 0.0
0.00015274015604212335 -3.3724143275602353e-6 0.0
0.00015529284052057015 -2.6673440221344848e-6 0.0
0.00015486897375064637 -3.619455816708802e-6 0.0
0.00015549931283538902 -1.893562817123431e-6 0.0
0.0001575476637107288 -2.9102516753936844e-6 0.0
0.00015698232097368582 -3.9580670605472805e-6 0.0
6.581871558592667e-5 -6.641932471997176e-6 0.0
4.163152015105811e-5 -3.2733842298069557e-6 0.0
4.140241451764589e-5 -2.8926523382639007e-6 0.0
0.0001545342244520319 -4.739643024816554e-6 0.0
0.00015656670174134016 -5.165902215334117e-6 0.0
0.000159038971406792 -4.344470408709178e-6 0.0
0.00015431054389424475 -6.025802624168415e-6 0.0
6.104565812288565e-5 -6.682854416084038e-6 0.0
0.00015863151136581626 -5.667038690582683e-6 0.0
0.0001611178571242141 -4.7799517903291975e-6 0.0
6.580869936674674e-5 -7.259296925779563e-6 0.0