# vtk DataFile Version 2.0
phase field modeling fracture
ASCII
DATASET UNSTRUCTURED_GRID
POINTS 2538 float
0.0 0.0 0.0
10.0 0.0 0.0
0.0 10.0 0.0
10.0 10.0 0.0
0.0 4.9995 0.0
0.0 5.0005 0.0
5.0 5.0 0.0
0.9416964895726688 0.0 0.0
1.803581725054446 0.0 0.0
2.592419885431098 0.0 0.0
3.314401822861676 0.0 0.0
3.975193910351406 0.0 0.0
4.579982132660152 0.0 0.0
5.133512780936812 0.0 0.0
5.640130319506143 0.0 0.0
6.103810708661955 0.0 0.0
6.528192895506818 0.0 0.0
6.916607540127679 0.0 0.0
7.272102969376355 0.0 0.0
7.597469242948583 0.0 0.0
7.895259826292669 0.0 0.0
8.167811885738017 0.0 0.0
8.417264413845215 0.0 0.0
8.645575169389538 0.0 0.0
8.854535961159101 0.0 0.0
9.045786767735546 0.0 0.0
9.220828555767493 0.0 0.0
9.38103509633881 0.0 0.0
9.527663687265145 0.0 0.0
9.661865124984566 0.0 0.0
9.784692609918062 0.0 0.0
9.897110148790482 0.0 0.0
10.0 0.09999999999992584 0.0
10.0 0.199999999999856 0.0
10.0 0.2999999999997771 0.0
10.0 0.3999999999996677 0.0
10.0 0.4999999999995511 0.0
10.0 0.5999999999994683 0.0
10.0 0.6999999999993983 0.0
10.0 0.7999999999993286 0.0
10.0 0.8999999999992587 0.0
10.0 0.9999999999991888 0.0
10.0 1.099999999999119 0.0
10.0 1.199999999999033 0.0
10.0 1.299999999998852 0.0
10.0 1.399999999998576 0.0
10.0 1.499999999998284 0.0
10.0 1.599999999997992 0.0
10.0 1.6999999999977 0.0
10.0 1.799999999997408 0.0
10.0 1.899999999997116 0.0
10.0 1.999999999996825 0.0
10.0 2.099999999996533 0.0
10.0 2.199999999996241 0.0
10.0 2.299999999995949 0.0
10.0 2.399999999995657 0.0
10.0 2.499999999995365 0.0
10.0 2.599999999995073 0.0
10.0 2.699999999994782 0.0
10.0 2.79999999999449 0.0
10.0 2.899999999994198 0.0
10.0 2.999999999993906 0.0
10.0 3.099999999993614 0.0
10.0 3.199999999993322 0.0
10.0 3.299999999993029 0.0
10.0 3.399999999992738 0.0
10.0 3.499999999992446 0.0
10.0 3.599999999992154 0.0
10.0 3.699999999991863 0.0
10.0 3.799999999991571 0.0
10.0 3.899999999991278 0.0
10.0 3.999999999991022 0.0
10.0 4.099999999991035 0.0
10.0 4.199999999991187 0.0
10.0 4.299999999991338 0.0
10.0 4.399999999991491 0.0
10.0 4.499999999991642 0.0
10.0 4.599999999991795 0.0
10.0 4.699999999991947 0.0
10.0 4.799999999992099 0.0
10.0 4.89999999999225 0.0
10.0 4.999999999992403 0.0
10.0 5.099999999992555 0.0
10.0 5.199999999992706 0.0
10.0 5.299999999992858 0.0
10.0 5.39999999999301 0.0
10.0 5.499999999993161 0.0
10.0 5.599999999993313 0.0
10.0 5.699999999993466 0.0
10.0 5.799999999993618 0.0
10.0 5.899999999993771 0.0
10.0 5.999999999993922 0.0
10.0 6.099999999994074 0.0
10.0 6.199999999994227 0.0
10.0 6.299999999994378 0.0
10.0 6.39999999999453 0.0
10.0 6.499999999994682 0.0
10.0 6.599999999994833 0.0
10.0 6.699999999994986 0.0
10.0 6.799999999995138 0.0
10.0 6.899999999995289 0.0
10.0 6.999999999995442 0.0
10.0 7.099999999995594 0.0
10.0 7.199999999995747 0.0
10.0 7.299999999995897 0.0
10.0 7.39999999999605 0.0
10.0 7.499999999996202 0.0
10.0 7.599999999996353 0.0
10.0 7.699999999996505 0.0
10.0 7.799999999996658 0.0
10.0 7.899999999996808 0.0
10.0 7.999999999996962 0.0
10.0 8.099999999997113 0.0
10.0 8.199999999997265 0.0
10.0 8.299999999997418 0.0
10.0 8.399999999997569 0.0
10.0 8.499999999997721 0.0
10.0 8.599999999997873 0.0
10.0 8.699999999998024 0.0
10.0 8.799999999998176 0.0
10.0 8.899999999998329 0.0
10.0 8.99999999999848 0.0
10.0 9.099999999998634 0.0
10.0 9.199999999998786 0.0
10.0 9.299999999998937 0.0
10.0 9.399999999999089 0.0
10.0 9.499999999999241 0.0
10.0 9.599999999999392 0.0
10.0 9.699999999999545 0.0
10.0 9.799999999999697 0.0
10.0 9.899999999999848 0.0
9.897110148790565 10.0 0.0
9.784692609918244 10.0 0.0
9.66186512498486 10.0 0.0
9.527663687265571 10.0 0.0
9.381035096339392 10.0 0.0
9.220828555768257 10.0 0.0
9.045786767736512 10.0 0.0
8.854535961160305 10.0 0.0
8.645575169391027 10.0 0.0
8.417264413847017 10.0 0.0
8.167811885740178 10.0 0.0
7.895259826295246 10.0 0.0
7.597469242951631 10.0 0.0
7.272102969379938 10.0 0.0
6.916607540131873 10.0 0.0
6.528192895511704 10.0 0.0
6.103810708667616 10.0 0.0
5.640130319512691 10.0 0.0
5.13351278094435 10.0 0.0
4.579982132668816 10.0 0.0
3.975193910361222 10.0 0.0
3.314401822869852 10.0 0.0
2.592419885437257 10.0 0.0
1.803581725058137 10.0 0.0
0.9416964895740705 10.0 0.0
0.0 9.00010000000243 0.0
0.0 8.000200000005481 0.0
0.0 7.000300000005135 0.0
0.0 6.000400000002569 0.0
0.901790731451151 5.000409820926855 0.0
1.657200899774397 5.000334279910023 0.0
2.289991063707192 5.000271000893629 0.0
2.820065163538221 5.000217993483646 0.0
3.264096435579811 5.000173590356442 0.0
3.636051481595835 5.00013639485184 0.0
3.947629914072366 5.000105237008593 0.0
4.208632181002628 5.0000791367819 0.0
4.427267949625672 5.000057273205037 0.0
4.610414277633563 5.000038958572237 0.0
4.763831845154243 5.000023616815485 0.0
4.892346298799659 5.00001076537012 0.0
4.892346298799748 4.99998923462988 0.0
4.763831845154455 4.999976383184515 0.0
4.610414277633943 4.999961041427763 0.0
4.427267949626277 4.999942726794963 0.0
4.208632181003523 4.9999208632181 0.0
3.94762991407365 4.999894762991407 0.0
3.636051481597624 4.99986360514816 0.0
3.264096435582253 4.999826409643559 0.0
2.820065163541503 4.999782006516354 0.0
2.289991063711534 4.999728999106371 0.0
1.657200899778495 4.999665720089978 0.0
0.9017907314530094 4.999590179073145 0.0
0.0 3.999600000002013 0.0
0.0 2.999700000005187 0.0
0.0 1.99980000000512 0.0
0.0 0.9999000000025537 0.0
9.897889398521345 2.93573355845387 0.0
9.906568249974548 7.060009441434234 0.0
9.913122631074113 3.64016132281653 0.0
9.922462129543863 6.354535290629151 0.0
9.917693659967533 4.354211663134567 0.0
9.909873057440208 5.637584487339942 0.0
9.914183254994697 4.950672966925282 0.0
9.913885043715895 7.666887930262611 0.0
9.91009668007573 2.351889069770817 0.0
9.905135696074536 8.138152454502785 0.0
9.913397459621809 1.849999999997262 0.0
7.099302372137626 0.297750452375005 0.0
7.095143729410097 9.700359990366296 0.0
4.942912558701401 5.095838627899509 0.0
4.315009232304429 5.165022115481685 0.0
4.946182472483878 4.906763777264103 0.0
4.317967462990024 4.825955043772673 0.0
9.916390871492647 8.64999999999792 0.0
9.921504649680616 1.368376469890358 0.0
8.292538149791614 0.206877570318844 0.0
8.292538149793597 9.793122429681448 0.0
5.884594439766573 9.587645267048616 0.0
5.794826292691579 0.3794853783929359 0.0
9.913397459621425 9.049999999998557 0.0
9.908526577714177 0.9568239351922434 0.0
3.456851160380649 5.315740054130451 0.0
3.457889657868442 4.707121019609468 0.0
8.945214200703926 0.1503383337970344 0.0
8.950161364448409 9.8413906539257 0.0
9.913862335499305 4.055887885208452 0.0
9.916697353372683 4.650158482607802 0.0
9.919076340414442 6.049999999994006 0.0
9.906994308667635 5.25749687748192 0.0
9.917490342358025 6.655979201891897 0.0
9.915757520293784 7.343848891656911 0.0
9.910049507471042 3.363474386285078 0.0
9.914471988502868 2.647400064832979 0.0
9.91474124160965 9.337490423485129 0.0
9.916971008170838 0.6499999999994355 0.0
4.307157269264427 9.509674045029644 0.0
4.331527375865619 0.4401616696422582 0.0
9.45434939180249 9.878397030523757 0.0
9.457696120412969 0.1270877537061785 0.0
2.555070293622606 5.422044496190925 0.0
2.566232917480916 4.608001224030952 0.0
3.026511860837692 9.332320638257093 0.0
2.945561971800619 0.5895662714727601 0.0
7.7395404387124 0.2511088946967771 0.0
7.736379255744154 9.745848826372828 0.0
4.687135269408529 5.122111433928926 0.0
4.688420821504113 4.871895064967488 0.0
9.910554884115975 0.3448356354522978 0.0
9.911230082250466 9.65764729394159 0.0
9.921953841410854 6.851023993342036 0.0
9.912065178606017 5.448170483544033 0.0
9.911660025326261 3.861846960030188 0.0
9.914847467973438 3.14501593945607 0.0
9.913397459621425 5.849999999993703 0.0
9.913397459621425 7.849999999996735 0.0
9.906916878988277 2.15455769998631 0.0
9.913397459621425 8.349999999997479 0.0
9.909472363117661 1.640528221515488 0.0
9.913987325695956 1.152857110636247 0.0
9.913397459621425 8.849999999998241 0.0
0.9100099990995943 2.614215977520411 0.0
0.8395284981715456 7.451196254860987 0.0
9.723278867451556 9.898135916635193 0.0
9.723316350887044 0.09841820909386662 0.0
1.385819164827588 4.454539963646463 0.0
1.338343629665047 5.523111536005823 0.0
1.377179700550677 0.6809168304959698 0.0
1.418060461092743 9.285896715136046 0.0
9.91268220142518 0.1457914080939694 0.0
9.906737126737994 9.845745933882352 0.0
0.7108351382691361 6.537941170074089 0.0
1.527735020267026 6.915620208855231 0.0
1.630993885659103 7.838271825205868 0.0
2.232760943566823 7.370850737296832 0.0
2.243414218068206 6.688299277952821 0.0
2.779655053105118 7.021588754814074 0.0
2.80227799359795 7.632420170547022 0.0
3.282022065908813 7.305859666021318 0.0
3.327597298795347 7.857554136825748 0.0
3.743210251018715 7.549183328204379 0.0
3.716353232200752 7.062036086888612 0.0
4.111978858674101 7.27497101169417 0.0
4.104192177581432 6.879858986267289 0.0
4.436230765617037 7.045693351607117 0.0
4.430360014817357 6.703971783962796 0.0
4.732390145036301 6.849841042423394 0.0
5.056161327708878 5.095276573498806 0.0
5.111586796021131 4.999081142133581 0.0
5.169267363407189 5.09444870412406 0.0
5.223795108752053 4.996986220359468 0.0
5.281480803887719 5.092780870372803 0.0
5.335670761900611 4.994887492556936 0.0
5.393485214772442 5.090486192743301 0.0
5.447323082877892 4.992601527033996 0.0
5.505243219343024 5.087953380710069 0.0
5.558739102026105 4.990287787962959 0.0
5.616491581184779 5.085335255235766 0.0
5.669852346908056 4.9879269227514 0.0
5.727502713908907 5.082679981817038 0.0
5.780766004135139 4.988313988715834 0.0
5.838244881129535 5.080480568766611 0.0
5.891357695677371 4.986433849408193 0.0
5.948696036767613 5.077969900389505 0.0
6.001601341641615 4.981313698556656 0.0
6.058851024265095 5.074871552128682 0.0
6.111614020704875 4.978360695880202 0.0
6.168801161530775 5.072044953270978 0.0
6.221368818778567 4.975825765213497 0.0
6.278268309066882 5.066182320461055 0.0
6.330814273567539 4.972837984645718 0.0
6.387565032421376 5.062889771971895 0.0
6.437476667631405 4.971693683589553 0.0
[...]
POINT_DATA 2538
VECTORS disp float
1.234995976510524e-11 1.696923483099887e-11 0.0
2.0780272529730687e-12 -6.52008345088924e-12 0.0
0.001300000000145185 1.8933188754469098e-12 0.0
0.0012999999787905617 -4.309809807665536e-11 0.0
0.000642046364844825 0.00029489139685789163 0.0
0.000970042339934624 1.3685482417663292e-5 0.0
0.0007681578408986191 -5.495994266573871e-5 0.0
-2.1279748893456103e-12 -3.609595321507004e-12 0.0
1.1373037721504462e-12 7.639626461557661e-13 0.0
5.228218767705423e-13 -1.2083551647418504e-12 0.0
6.268163567303201e-13 -8.276828209543657e-13 0.0
2.6053874463034373e-13 -7.909094734474724e-13 0.0
3.261556985476317e-13 -1.0726866431560585e-12 0.0
2.373811176210215e-13 -1.1949849249408613e-12 0.0
2.0356333641301404e-13 -1.4751060296489633e-12 0.0
1.2304908122666624e-13 -1.7197153751892135e-12 0.0
2.4478310582763177e-13 -1.996225944576103e-12 0.0
2.3990000641066683e-13 -2.1827318023189933e-12 0.0
2.8111241968386963e-13 -2.3303040355200525e-12 0.0
3.0773264248417214e-13 -2.432726317492599e-12 0.0
2.897361688763769e-13 -2.462470352140656e-12 0.0
3.424918679084371e-13 -2.584754184319968e-12 0.0
3.146867249716146e-13 -2.5922614346468785e-12 0.0
3.119954441683069e-13 -2.6796306167306354e-12 0.0
3.6986046469633514e-13 -2.728388499586286e-12 0.0
3.4296897754114697e-13 -2.737399180342927e-12 0.0
3.7083274977076557e-13 -2.7831528086398117e-12 0.0
4.340883877852331e-13 -2.8371707630295807e-12 0.0
4.524242499935488e-13 -2.914487736890859e-12 0.0
4.2954976666086826e-13 -3.0831984715813497e-12 0.0
6.240819506207149e-13 -3.374805760643468e-12 0.0
1.3272050882906312e-13 -3.1079459131231154e-12 0.0
1.6047301822960932e-5 -6.142497344389892e-6 0.0
2.9447175096311925e-5 -1.137748757050817e-5 0.0
4.2699288527016595e-5 -1.6160859744035636e-5 0.0
5.539991121378054e-5 -2.0735058849079778e-5 0.0
6.7576229111436e-5 -2.5107315076073005e-5 0.0
7.942435556963496e-5 -2.939117722842934e-5 0.0
9.120131493335737e-5 -3.34441050635377e-5 0.0
0.00010276998608263183 -3.74150850883872e-5 0.0
0.00011422158690719499 -4.13266428002781e-5 0.0
0.0001256476715554605 -4.513419855530485e-5 0.0
0.00013699599884146383 -4.887710742406928e-5 0.0
0.00014848850044088324 -5.2562623070798477e-5 0.0
0.0001599513642579561 -5.627003357664891e-5 0.0
0.0001711705797562983 -5.98783447960199e-5 0.0
0.0001829162217398805 -6.381569994993403e-5 0.0
0.0001944559837857953 -6.794444214120537e-5 0.0
0.00020611214147281108 -7.207200377835524e-5 0.0
0.0002176473824552321 -7.61361031938089e-5 0.0
0.00022908186731043556 -8.021212115857815e-5 0.0
0.00024044502473855712 -8.421228798029064e-5 0.0
0.0002520622947919839 -8.804628664962761e-5 0.0
0.0002632512022913215 -9.17658007977629e-5 0.0
0.0002750306299477354 -9.5121980519848e-5 0.0
0.00028637076209214247 -9.851910876693167e-5 0.0
0.0002980839134123002 -0.0001016802650448386 0.0
0.0003095929512490107 -0.0001047255401626421 0.0
0.00032123719488118073 -0.00010766998064515936 0.0
0.0003327220675359028 -0.0001103368841486409 0.0
0.0003446156355226343 -0.00011283530788849267 0.0
0.00035626685672137293 -0.00011522077990639532 0.0
0.0003681709804504463 -0.00011741915738237995 0.0
0.00037998865916994334 -0.0001194240314090737 0.0
0.00039194482111688876 -0.0001214076788815598 0.0
0.00040430148168797453 -0.00012339218098438113 0.0
0.0004186272134878808 -0.0001261085660861408 0.0
0.0004332355005391105 -0.00012936553687178587 0.0
0.0004473556752074421 -0.0001332790574347764 0.0
0.0004625663293425289 -0.000137124076686602 0.0
0.00047516059401141365 -0.00014174405400770065 0.0
0.0004879200149797854 -0.0001459970957042206 0.0
0.0004991719394222205 -0.0001505662305997346 0.0
0.0005076706949050666 -0.00015566043103475003 0.0
0.0005172817592193618 -0.00015812315963147194 0.0
0.0005264989823199005 -0.00016067781676967923 0.0
0.0005367213903161838 -0.00016262629574632668 0.0
0.0005470554405264395 -0.00016442205136792291 0.0
0.0005576908254388925 -0.0001660200166085949 0.0
0.0005689187360927703 -0.00016722363708515227 0.0
0.0005801602866231433 -0.00016885334556309548 0.0
0.0005922800306539669 -0.00016998852024352563 0.0
0.0006039572093978545 -0.00017147497593328792 0.0
0.0006164007258270205 -0.00017242814371801158 0.0
0.000629015978921536 -0.00017332263035019015 0.0
0.0006431345021369673 -0.00017410120772779798 0.0
0.0006572867401817616 -0.0001746929832731255 0.0
0.0006730498965782023 -0.00017504114785911183 0.0
0.0006893389963756813 -0.00017531717875796668 0.0
0.0007057091094732527 -0.00017548107280233595 0.0
0.0007218682814874124 -0.00017566467067238798 0.0
0.0007374521573758598 -0.0001758034847741469 0.0
0.0007519947628867807 -0.0001760509491548085 0.0
0.000765622798982118 -0.00017640589908040648 0.0
0.0007789336324895967 -0.00017682452061544446 0.0
0.0007916102364703173 -0.000177203900188268 0.0
0.0008040250534297827 -0.00017758288075431632 0.0
0.0008165480080936226 -0.0001778452230272914 0.0
0.0008292577284263077 -0.00017790994178949187 0.0
0.0008418984409859263 -0.00017789265170838447 0.0
0.000854840068882395 -0.00017756204617271683 0.0
0.0008679800637644325 -0.00017706754437301923 0.0
0.0008806015077575343 -0.0001765241860161825 0.0
0.000893409150122344 -0.0001758672299139007 0.0
0.0009057808363806064 -0.00017544896361230855 0.0
0.0009179034321190277 -0.0001750823908881959 0.0
0.0009298156616526684 -0.00017479106729100864 0.0
0.000940605383300302 -0.00017471895168488428 0.0
0.0009510063197372827 -0.00017454470706497303 0.0
0.000961015083579321 -0.00017441908207725386 0.0
0.000971060111423534 -0.00017413257283981163 0.0
0.0009807045203857894 -0.00017374232521567164 0.0
0.0009918672467570788 -0.0001737212533689761 0.0
0.0010036038025955337 -0.00017297369688420812 0.0
0.0010153098391872523 -0.0001718977627121252 0.0
0.0010262814812054897 -0.00016963569417187825 0.0
0.0010373404974953686 -0.00016599071150549396 0.0
0.0010487121003837645 -0.00016196789653430342 0.0
0.001061380844538696 -0.0001573107690927506 0.0
0.001074553351528617 -0.00015258257372084458 0.0
0.0010871140856965902 -0.0001484657909829855 0.0
0.001100006014183788 -0.00014406550749591066 0.0
0.0011138670904115963 -0.00013852333051049692 0.0
0.0011273370503816621 -0.00013176897475809929 0.0
0.0011414169052217928 -0.00012390136582556598 0.0
0.0011558699280622437 -0.00011507475131129641 0.0
0.0011721266755065237 -0.00010464922178271411 0.0
0.0011900410382489357 -9.181495405687995e-5 0.0
0.0012096138540417824 -7.634751606831027e-5 0.0
0.0012335886838769545 -5.781953917232548e-5 0.0
0.0012612888318555148 -3.48791710229383e-5 0.0
0.001300000000668741 3.4484963983187403e-13 0.0
0.0012999999969852904 -3.870076988159143e-12 0.0
0.0012999999991492191 5.401818462013677e-13 0.0
0.0012999999985569793 2.0873193096276715e-14 0.0
0.0012999999989106383 4.447673693852686e-13 0.0
0.0012999999988935504 6.057030500787922e-13 0.0
0.0012999999989236409 5.968772040664192e-13 0.0
0.001299999999041038 6.510567617013425e-13 0.0
0.0012999999990811221 7.142163212622182e-13 0.0
0.0012999999991690524 7.823512682102537e-13 0.0
0.0012999999992121976 8.704330154548167e-13 0.0
0.0012999999992539557 9.984598335978165e-13 0.0
0.0012999999992407679 1.0865713551480174e-12 0.0
0.0012999999992416788 1.1782939067721711e-12 0.0
0.001299999999226057 1.2477759181458052e-12 0.0
0.0012999999992165804 1.3128824545701767e-12 0.0
0.0012999999991870027 1.34708366198052e-12 0.0
0.0012999999992095795 1.4152908218059206e-12 0.0
0.0012999999992062972 1.4545812488215412e-12 0.0
0.0012999999992585227 1.3985769049656029e-12 0.0
0.001299999999313649 1.352936458569682e-12 0.0
0.001299999999330722 1.24385090281836e-12 0.0
0.0012999999995164956 1.2319202472694532e-12 0.0
0.0012999999997400067 1.347130984665725e-12 0.0
0.0012999999997545034 1.0838524186016144e-12 0.0
0.001222493097361193 1.9059071769992705e-5 0.0
0.0011457162354344208 2.2965351846505823e-5 0.0
0.0010714267628011741 1.794589770156011e-5 0.0
0.0010102518208852484 1.5267667785937294e-5 0.0
0.0009666777357597632 -1.5892894817305928e-5 0.0
0.0009645797429354711 -4.394808633699175e-5 0.0
0.0009625283724904514 -7.26608172811652e-5 0.0
0.0009569598592771152 -9.347073777407188e-5 0.0
0.0009486708139340927 -0.00010860910556786466 0.0
0.0009372691670175588 -0.00011845201285883848 0.0
0.0009232476800521848 -0.0001237921251433147 0.0
0.0009068199502370257 -0.00012267471992964303 0.0
0.0008884055829231106 -0.00011815762148644808 0.0
0.0008675404888302154 -0.00011074117617490292 0.0
0.0008425411900973311 -0.00010072181429703476 0.0
0.0008127728445443121 -8.679629366959399e-5 0.0
0.0007429283430682533 -2.1400395724278248e-5 0.0
0.0007239377291296314 -5.94225086120852e-7 0.0
0.0007071487569837433 1.6470038570365905e-5 0.0
0.0006914438250227373 3.322353682973046e-5 0.0
0.0006763243389273886 4.948113222048321e-5 0.0
0.0006630419867076759 6.581617859019855e-5 0.0
0.0006511351405218207 8.275853982641839e-5 0.0
0.0006412575438071468 9.908554121484395e-5 0.0
0.0006350524505045049 0.0001213690479258185 0.0
0.0006301727607238221 0.00014661000844014738 0.0
0.000632642703897742 0.00018201292968622645 0.0
0.0006306988602837883 0.00022490852197065692 0.0
0.0005564139086440662 0.0002929912461864287 0.0
0.00046534170400710503 0.0002890267172944337 0.0
0.00036892752368164467 0.00026088851868206277 0.0
0.0002517697162558624 0.00018907727075075594 0.0
0.0003476822782843889 -0.00010810825586049871 0.0
0.0008760227551412021 -0.0001667563653886508 0.0
0.0004365140346878076 -0.00012314185345833212 0.0
0.0007858053110168124 -0.00016823330350741291 0.0
0.0005207052525507179 -0.00015256287326056964 0.0
0.0006792279871770508 -0.00016309684677042163 0.0
0.0005858888763883617 -0.00015966132088455137 0.0
0.0009476258169443374 -0.00016699898666426861 0.0
0.00027932230773003485 -9.306560748040756e-5 0.0
0.0009972788606343909 -0.00016110214475943468 0.0
0.00022111782250539 -7.508714661193321e-5 0.0
2.6366783122962265e-5 -5.825847016429118e-6 0.0
0.0012651937964217371 9.87930054321608e-7 0.0
0.0007958741715221879 -5.99262635895165e-5 0.0
0.0008832159286738463 -0.00011088055576158254 0.0
0.0007149743914017989 -2.8541890729525393e-5 0.0
0.0006561951488544875 4.760747549607339e-5 0.0
0.001058214837592434 -0.00014548113747217442 0.0
0.00016608192073573814 -5.654541053890317e-5 0.0
2.029806470777267e-5 -4.5883353999363856e-6 0.0
0.0012754071679439796 -6.31072111514598e-7 0.0
0.0012511631442905869 1.927102092194522e-6 0.0
3.059445650328838e-5 -4.194347020050792e-6 0.0
0.0011102075327180361 -0.0001220434398387753 0.0
0.00011890271630354108 -4.038357347213691e-5 0.0
0.000936172519903686 -0.00010571275131467915 0.0
0.0006135330666799276 9.357643795320087e-5 0.0
1.5732845584172263e-5 -3.603883257772185e-6 0.0
0.0012791027629122135 -1.1721822483493015e-6 0.0
0.0004907049618972631 -0.00014102072703287198 0.0
0.000551640339453085 -0.00015701433157697353 0.0
0.0007447416435249997 -0.00016618466176459011 0.0
0.0006234786197208586 -0.00016117905288785922 0.0
0.0008238072582695351 -0.00016844015740926618 0.0
0.0009112331703022137 -0.0001671143032313585 0.0
0.00039891530290249764 -0.00011704779551271076 0.0
0.000313895568810672 -0.00010188290054930316 0.0
0.0011517689669322433 -9.908516984485338e-5 0.0
8.361491760439983e-5 -2.8198468978101064e-5 0.0
0.0012447384501106079 1.5807175075210212e-6 0.0
4.105127000213102e-5 -7.061657716068067e-8 0.0
0.0012822161010329065 -1.5480218604856027e-6 0.0
1.454220490310486e-5 -3.238528395831926e-6 0.0
0.0009673595536539844 -7.869830694140359e-5 0.0
0.000595950802142985 0.00013354046875594657 0.0
0.0012328884488572662 7.47635149026126e-7 0.0
6.612572462270964e-5 2.4021240953749087e-6 0.0
2.362443760694542e-5 -5.2999247498262e-6 0.0
0.0012705223255533712 2.133302639719329e-7 0.0
0.0008426057915966166 -9.392778774978033e-5 0.0
0.0006871736100335704 1.3980625446324475e-5 0.0
4.639655631699447e-5 -1.4624921924893971e-5 0.0
0.0012102110517023252 -5.85306649430161e-5 0.0
0.0008488376013789036 -0.00016883815460219586 0.0
0.000649877477227572 -0.00016285620471278916 0.0
0.00046707641674327116 -0.00013169190745480308 0.0
0.00037277172383041486 -0.00011345138977255899 0.0
0.0007138220085207432 -0.0001643472634707645 0.0
0.0009662170850409425 -0.00016644072840251207 0.0
0.0002561980893229094 -8.634290377743471e-5 0.0
0.0010226104463576695 -0.0001574706176838631 0.0
0.00019678330189101616 -6.652491330957215e-5 0.0
0.00014134274504043544 -4.814136830149693e-5 0.0
0.0010834888827145493 -0.0001341203590350461 0.0
0.0004057531117224731 0.00016476182014429216 0.0
0.0010953726212349644 -3.055301955663567e-6 0.0
0.0012818215121622777 -3.99065869823875e-6 0.0
1.2006465698376275e-5 -2.7920492365265246e-6 0.0
0.0005854029012239438 0.00019710519216335426 0.0
0.000984101975395173 -3.0679595478953875e-5 0.0
8.883186815126959e-5 1.27640984544443e-5 0.0
0.0012433105435404438 2.7031164833971625e-6 0.0
2.022092935284989e-5 -5.8257368014049994e-6 0.0
0.0012573673703140627 -2.3522570938111437e-5 0.0
0.0010387888363575166 -5.720273780352961e-6 0.0
0.001049866244516205 -2.1902527993575193e-5 0.0
0.0011132435187486604 -1.1175870341892034e-5 0.0
0.0010643521908885898 -2.3398962390854026e-5 0.0
0.00101637096462484 -4.034394767092491e-5 0.0
0.001020328348401085 -3.6281554383705e-5 0.0
0.0010684798754010186 -2.0660583316611893e-5 0.0
0.0010247814899686227 -2.772965012036057e-5 0.0
0.0010758296964498825 -1.5474109112672248e-5 0.0
0.0010336637963108384 -1.9165600516571965e-5 0.0
0.0009877664943887157 -3.17568736895422e-5 0.0
0.0009946959856131298 -2.0905617220005124e-5 0.0
0.000955956870508362 -3.1590047490290855e-5 0.0
0.0009607229504688644 -2.0776501164647304e-5 0.0
0.0009267811331395754 -2.9492124476134957e-5 0.0
0.0009312435103502717 -1.7942888754652405e-5 0.0
0.0007836696139966795 -5.0865298655998046e-5 0.0
0.0007568022768636657 -5.697876150208805e-5 0.0
0.0007689183957935187 -4.987899463507314e-5 0.0
0.0007456246216530956 -5.6877328376295805e-5 0.0
0.0007563125897776356 -5.008566156540956e-5 0.0
0.0007357178442756228 -5.583448112835871e-5 0.0
0.0007448051521157825 -4.8851745385418316e-5 0.0
0.0007258174805306069 -5.4394570036022896e-5 0.0
0.0007341810241551917 -4.778437624409882e-5 0.0
0.0007160670935499516 -5.369396178191614e-5 0.0
0.0007244070876261714 -4.7487809216622375e-5 0.0
0.0007071422637211377 -5.270436692609559e-5 0.0
0.0007154569055920152 -4.6984100901307894e-5 0.0
0.0006992395250969163 -5.122395510149037e-5 0.0
0.000707275380797283 -4.5780081773956705e-5 0.0
0.0006914172444603189 -4.979370984021915e-5 0.0
0.0006997452355910714 -4.490465184797912e-5 0.0
0.0006836547279686972 -4.9088528139681824e-5 0.0
0.0006926319202288675 -4.44335555707377e-5 0.0
0.0006769842436248175 -4.781789682417572e-5 0.0
0.0006861406724164938 -4.3501978965331186e-5 0.0
0.0006707865283407582 -4.667389273178255e-5 0.0
0.0006796377132409144 -4.278236694869796e-5 0.0
0.0006648108613120284 -4.585003910853842e-5 0.0
0.0006737913125625997 -4.236650466137223e-5 0.0
0.0006595571670267183 -4.526359033044098e-5 0.0
0.0006682541181099801 -4.198095998105072e-5 0.0
0.0006538511855083054 -4.506514473887921e-5 0.0
0.000662823687279077 -4.191018035480357e-5 0.0
0.0006456210796109452 -4.564987128089426e-5 0.0
0.0006583760090063456 -4.1965529142468064e-5 0.0
0.0006434235668657248 -4.4739013497762064e-5 0.0
0.0006536161095162847 -4.210536623072144e-5 0.0
0.000639231543273145 -4.4833698106023194e-5 0.0
0.0006492125003549984 -4.2543470275376464e-5 0.0
0.0006356457198818544 -4.51004822132412e-5 0.0
0.0006449334949959449 -4.318003164375391e-5 0.0
0.0006316480253242919 -4.5645275345058786e-5 0.0
0.0007027724133369883 -5.884293445601517e-5 0.0
0.0006408493184188072 -4.40312486876376e-5 0.0
0.0006669398639754196 -5.2223512968269415e-5 0.0
0.0006302444455948562 -4.786362921121979e-5 0.0
0.000626964103733622 -4.6630832512518374e-5 0.0
0.0006368632752017019 -4.5157584521639995e-5 0.0
0.0006223880381293816 -4.78515889354961e-5 0.0
0.0006129197883335063 -4.912958996419773e-5 0.0
0.0006079830425197402 -5.038547229806862e-5 0.0
0.0006323875405343989 -4.662070249257883e-5 0.0
0.0006471515415353644 -4.379735953708691e-5 0.0
0.0006675666690932953 -3.949862943637496e-5 0.0
0.0006428654735476314 -4.5506309283566003e-5 0.0
0.0006587961293272008 -4.237002227512546e-5 0.0
0.0006539812216328307 -4.452485298171259e-5 0.0
0.0005986400219690998 -5.153105728993947e-5 0.0
0.0005943468655501348 -5.2647372307298176e-5 0.0
0.0006706142527349033 -4.119978468236583e-5 0.0
0.0005841816791853576 -5.377404833910358e-5 0.0
0.0005806094553751182 -5.480055973920617e-5 0.0
0.0006662291134839398 -4.357888334196972e-5 0.0
0.000682355116576771 -4.0418960866433476e-5 0.0
0.0005695231389772656 -5.586555710325333e-5 0.0
0.0005657196150309755 -5.688592903818531e-5 0.0
0.0006785391046568372 -4.2979117028697886e-5 0.0
0.0006952736750230893 -3.972005429658668e-5 0.0
0.0005548030949169971 -5.77155631286128e-5 0.0
0.0005508376111585282 -5.886642725196383e-5 0.0
0.0006915272504146597 -4.2652329621359664e-5 0.0
0.0007089106243063011 -3.923988862299418e-5 0.0
0.0005401063286670424 -5.9419277363314534e-5 0.0
0.0005353415038189755 -6.0585085531895745e-5 0.0
0.0007055543239474402 -4.24836506067689e-5 0.0
0.0007230957943907011 -3.9023836861585586e-5 0.0
0.0005238734038919252 -6.091111333410192e-5 0.0
0.0005194987864796418 -6.206826718413135e-5 0.0
0.0005066414945101301 -6.219702645360835e-5 0.0
0.0005112251642930085 -6.129083551129812e-5 0.0
0.0006867750337182222 -4.583370403125924e-5 0.0
0.0007198742657409385 -4.2679650027908415e-5 0.0
0.0007378122659424327 -3.91079232670201e-5 0.0
0.0007413269376749534 -3.525129394431763e-5 0.0
0.0006934327441145384 -3.966767892995925e-5 0.0
0.0007566053985470204 -3.525539284045587e-5 0.0
0.0007602876018988818 -3.122395460804475e-5 0.0
0.0007759944185013266 -3.107563046289982e-5 0.0
0.0005035316722168764 -6.345231060232803e-5 0.0
0.0004896882552213984 -6.320479155268292e-5 0.0
0.0005162018380110093 -6.362407463548215e-5 0.0
0.0007343017626258454 -4.3281901874828116e-5 0.0
0.00048693719817216157 -6.452743222747316e-5 0.0
0.00047221849435375595 -6.397882173765842e-5 0.0
0.0007226555151169393 -4.13063466662852e-5 0.0
0.00046970500774242026 -6.519466007395139e-5 0.0
0.0004541880338325672 -6.438339512959546e-5 0.0
0.0004518350655048746 -6.564554016339661e-5 0.0
0.0004360963223554768 -6.452071392426777e-5 0.0
0.0004380713351101026 -6.352431693702309e-5 0.0
0.0004182645901108518 -6.348729278911152e-5 0.0
0.0004205919603231186 -6.256421785735301e-5 0.0
0.0004317277639166987 -6.582153661394537e-5 0.0
0.000398983039561536 -6.217565312264804e-5 0.0
0.0004011638848722254 -6.147419935145382e-5 0.0
0.00044972175438896144 -6.73448297604969e-5 0.0
0.0004324465657912698 -6.777252858670659e-5 0.0
0.00037998469619965325 -6.0688659454955675e-5 0.0
0.00038119603731521655 -6.0095958864564856e-5 0.0
0.0007800838618777741 -2.7082249426161355e-5 0.0
0.0007963541297689082 -2.6857176249510643e-5 0.0
0.00044774211190251985 -6.942684175195501e-5 0.0
0.00043077282330102246 -6.985143380270358e-5 0.0
0.0008006056267223832 -2.2817044450190933e-5 0.0
0.000817669105973313 -2.2578440208073142e-5 0.0
0.0008127009308553101 -2.7400645694405836e-5 0.0
0.0008343716592151523 -2.286200434910679e-5 0.0
0.0008299237015395407 -2.8217582004729103e-5 0.0
0.0008520207738374682 -2.327159948439311e-5 0.0
0.0008487921496232232 -2.8984264613489543e-5 0.0
0.0008721224116692611 -2.337968140437961e-5 0.0
0.0008671165422044319 -2.9622396822452937e-5 0.0
0.0008751585435911337 -1.8279968204869115e-5 0.0
0.0008912006016909637 -2.4037338468881442e-5 0.0
0.0008851640364061249 -3.078286301199395e-5 0.0
0.00044613847856969614 -7.182266630797057e-5 0.0
0.0003586393511203373 -5.88952980122096e-5 0.0
0.0003591862508729437 -5.8246380055555906e-5 0.0
0.0008629167374900149 -3.696379750211526e-5 0.0
0.0008803552964332436 -3.853307232548504e-5 0.0
0.0009027507233848714 -3.2095200776898115e-5 0.0
0.0008597649683874891 -4.508384081939345e-5 0.0
0.0004296049097339355 -7.226149132047487e-5 0.0
0.0008980650252610152 -4.042827326128356e-5 0.0
0.0009204528922483091 -3.355724457964704e-5 0.0
0.00044465348013396274 -7.454928692734001e-5 0.0