# vtk DataFile Version 2.0
phase field modeling fracture
ASCII
DATASET UNSTRUCTURED_GRID
POINTS 2538 float
0.0 0.0 0.0
10.0 0.0 0.0
0.0 10.0 0.0
10.0 10.0 0.0
0.0 4.9995 0.0
0.0 5.0005 0.0
5.0 5.0 0.0
0.9416964895726688 0.0 0.0
1.803581725054446 0.0 0.0
2.592419885431098 0.0 0.0
3.314401822861676 0.0 0.0
3.975193910351406 0.0 0.0
4.579982132660152 0.0 0.0
5.133512780936812 0.0 0.0
5.640130319506143 0.0 0.0
6.103810708661955 0.0 0.0
6.528192895506818 0.0 0.0
6.916607540127679 0.0 0.0
7.272102969376355 0.0 0.0
7.597469242948583 0.0 0.0
7.895259826292669 0.0 0.0
8.167811885738017 0.0 0.0
8.417264413845215 0.0 0.0
8.645575169389538 0.0 0.0
8.854535961159101 0.0 0.0
9.045786767735546 0.0 0.0
9.220828555767493 0.0 0.0
9.38103509633881 0.0 0.0
9.527663687265145 0.0 0.0
9.661865124984566 0.0 0.0
9.784692609918062 0.0 0.0
9.897110148790482 0.0 0.0
10.0 0.09999999999992584 0.0
10.0 0.199999999999856 0.0
10.0 0.2999999999997771 0.0
10.0 0.3999999999996677 0.0
10.0 0.4999999999995511 0.0
10.0 0.5999999999994683 0.0
10.0 0.6999999999993983 0.0
10.0 0.7999999999993286 0.0
10.0 0.8999999999992587 0.0
10.0 0.9999999999991888 0.0
10.0 1.099999999999119 0.0
10.0 1.199999999999033 0.0
10.0 1.299999999998852 0.0
10.0 1.399999999998576 0.0
10.0 1.499999999998284 0.0
10.0 1.599999999997992 0.0
10.0 1.6999999999977 0.0
10.0 1.799999999997408 0.0
10.0 1.899999999997116 0.0
10.0 1.999999999996825 0.0
10.0 2.099999999996533 0.0
10.0 2.199999999996241 0.0
10.0 2.299999999995949 0.0
10.0 2.399999999995657 0.0
10.0 2.499999999995365 0.0
10.0 2.599999999995073 0.0
10.0 2.699999999994782 0.0
10.0 2.79999999999449 0.0
10.0 2.899999999994198 0.0
10.0 2.999999999993906 0.0
10.0 3.099999999993614 0.0
10.0 3.199999999993322 0.0
10.0 3.299999999993029 0.0
10.0 3.399999999992738 0.0
10.0 3.499999999992446 0.0
10.0 3.599999999992154 0.0
10.0 3.699999999991863 0.0
10.0 3.799999999991571 0.0
10.0 3.899999999991278 0.0
10.0 3.999999999991022 0.0
10.0 4.099999999991035 0.0
10.0 4.199999999991187 0.0
10.0 4.299999999991338 0.0
10.0 4.399999999991491 0.0
10.0 4.499999999991642 0.0
10.0 4.599999999991795 0.0
10.0 4.699999999991947 0.0
10.0 4.799999999992099 0.0
10.0 4.89999999999225 0.0
10.0 4.999999999992403 0.0
10.0 5.099999999992555 0.0
10.0 5.199999999992706 0.0
10.0 5.299999999992858 0.0
10.0 5.39999999999301 0.0
10.0 5.499999999993161 0.0
10.0 5.599999999993313 0.0
10.0 5.699999999993466 0.0
10.0 5.799999999993618 0.0
10.0 5.899999999993771 0.0
10.0 5.999999999993922 0.0
10.0 6.099999999994074 0.0
10.0 6.199999999994227 0.0
10.0 6.299999999994378 0.0
10.0 6.39999999999453 0.0
10.0 6.499999999994682 0.0
10.0 6.599999999994833 0.0
10.0 6.699999999994986 0.0
10.0 6.799999999995138 0.0
10.0 6.899999999995289 0.0
10.0 6.999999999995442 0.0
10.0 7.099999999995594 0.0
10.0 7.199999999995747 0.0
10.0 7.299999999995897 0.0
10.0 7.39999999999605 0.0
10.0 7.499999999996202 0.0
10.0 7.599999999996353 0.0
10.0 7.699999999996505 0.0
10.0 7.799999999996658 0.0
10.0 7.899999999996808 0.0
10.0 7.999999999996962 0.0
10.0 8.099999999997113 0.0
10.0 8.199999999997265 0.0
10.0 8.299999999997418 0.0
10.0 8.399999999997569 0.0
10.0 8.499999999997721 0.0
10.0 8.599999999997873 0.0
10.0 8.699999999998024 0.0
10.0 8.799999999998176 0.0
10.0 8.899999999998329 0.0
10.0 8.99999999999848 0.0
10.0 9.099999999998634 0.0
10.0 9.199999999998786 0.0
10.0 9.299999999998937 0.0
10.0 9.399999999999089 0.0
10.0 9.499999999999241 0.0
10.0 9.599999999999392 0.0
10.0 9.699999999999545 0.0
10.0 9.799999999999697 0.0
10.0 9.899999999999848 0.0
9.897110148790565 10.0 0.0
9.784692609918244 10.0 0.0
9.66186512498486 10.0 0.0
9.527663687265571 10.0 0.0
9.381035096339392 10.0 0.0
9.220828555768257 10.0 0.0
9.045786767736512 10.0 0.0
8.854535961160305 10.0 0.0
8.645575169391027 10.0 0.0
8.417264413847017 10.0 0.0
8.167811885740178 10.0 0.0
7.895259826295246 10.0 0.0
7.597469242951631 10.0 0.0
7.272102969379938 10.0 0.0
6.916607540131873 10.0 0.0
6.528192895511704 10.0 0.0
6.103810708667616 10.0 0.0
5.640130319512691 10.0 0.0
5.13351278094435 10.0 0.0
4.579982132668816 10.0 0.0
3.975193910361222 10.0 0.0
3.314401822869852 10.0 0.0
2.592419885437257 10.0 0.0
1.803581725058137 10.0 0.0
0.9416964895740705 10.0 0.0
0.0 9.00010000000243 0.0
0.0 8.000200000005481 0.0
0.0 7.000300000005135 0.0
0.0 6.000400000002569 0.0
0.901790731451151 5.000409820926855 0.0
1.657200899774397 5.000334279910023 0.0
2.289991063707192 5.000271000893629 0.0
2.820065163538221 5.000217993483646 0.0
3.264096435579811 5.000173590356442 0.0
3.636051481595835 5.00013639485184 0.0
3.947629914072366 5.000105237008593 0.0
4.208632181002628 5.0000791367819 0.0
4.427267949625672 5.000057273205037 0.0
4.610414277633563 5.000038958572237 0.0
4.763831845154243 5.000023616815485 0.0
4.892346298799659 5.00001076537012 0.0
4.892346298799748 4.99998923462988 0.0
4.763831845154455 4.999976383184515 0.0
4.610414277633943 4.999961041427763 0.0
4.427267949626277 4.999942726794963 0.0
4.208632181003523 4.9999208632181 0.0
3.94762991407365 4.999894762991407 0.0
3.636051481597624 4.99986360514816 0.0
3.264096435582253 4.999826409643559 0.0
2.820065163541503 4.999782006516354 0.0
2.289991063711534 4.999728999106371 0.0
1.657200899778495 4.999665720089978 0.0
0.9017907314530094 4.999590179073145 0.0
0.0 3.999600000002013 0.0
0.0 2.999700000005187 0.0
0.0 1.99980000000512 0.0
0.0 0.9999000000025537 0.0
9.897889398521345 2.93573355845387 0.0
9.906568249974548 7.060009441434234 0.0
9.913122631074113 3.64016132281653 0.0
9.922462129543863 6.354535290629151 0.0
9.917693659967533 4.354211663134567 0.0
9.909873057440208 5.637584487339942 0.0
9.914183254994697 4.950672966925282 0.0
9.913885043715895 7.666887930262611 0.0
9.91009668007573 2.351889069770817 0.0
9.905135696074536 8.138152454502785 0.0
9.913397459621809 1.849999999997262 0.0
7.099302372137626 0.297750452375005 0.0
7.095143729410097 9.700359990366296 0.0
4.942912558701401 5.095838627899509 0.0
4.315009232304429 5.165022115481685 0.0
4.946182472483878 4.906763777264103 0.0
4.317967462990024 4.825955043772673 0.0
9.916390871492647 8.64999999999792 0.0
9.921504649680616 1.368376469890358 0.0
8.292538149791614 0.206877570318844 0.0
8.292538149793597 9.793122429681448 0.0
5.884594439766573 9.587645267048616 0.0
5.794826292691579 0.3794853783929359 0.0
9.913397459621425 9.049999999998557 0.0
9.908526577714177 0.9568239351922434 0.0
3.456851160380649 5.315740054130451 0.0
3.457889657868442 4.707121019609468 0.0
8.945214200703926 0.1503383337970344 0.0
8.950161364448409 9.8413906539257 0.0
9.913862335499305 4.055887885208452 0.0
9.916697353372683 4.650158482607802 0.0
9.919076340414442 6.049999999994006 0.0
9.906994308667635 5.25749687748192 0.0
9.917490342358025 6.655979201891897 0.0
9.915757520293784 7.343848891656911 0.0
9.910049507471042 3.363474386285078 0.0
9.914471988502868 2.647400064832979 0.0
9.91474124160965 9.337490423485129 0.0
9.916971008170838 0.6499999999994355 0.0
4.307157269264427 9.509674045029644 0.0
4.331527375865619 0.4401616696422582 0.0
9.45434939180249 9.878397030523757 0.0
9.457696120412969 0.1270877537061785 0.0
2.555070293622606 5.422044496190925 0.0
2.566232917480916 4.608001224030952 0.0
3.026511860837692 9.332320638257093 0.0
2.945561971800619 0.5895662714727601 0.0
7.7395404387124 0.2511088946967771 0.0
7.736379255744154 9.745848826372828 0.0
4.687135269408529 5.122111433928926 0.0
4.688420821504113 4.871895064967488 0.0
9.910554884115975 0.3448356354522978 0.0
9.911230082250466 9.65764729394159 0.0
9.921953841410854 6.851023993342036 0.0
9.912065178606017 5.448170483544033 0.0
9.911660025326261 3.861846960030188 0.0
9.914847467973438 3.14501593945607 0.0
9.913397459621425 5.849999999993703 0.0
9.913397459621425 7.849999999996735 0.0
9.906916878988277 2.15455769998631 0.0
9.913397459621425 8.349999999997479 0.0
9.909472363117661 1.640528221515488 0.0
9.913987325695956 1.152857110636247 0.0
9.913397459621425 8.849999999998241 0.0
0.9100099990995943 2.614215977520411 0.0
0.8395284981715456 7.451196254860987 0.0
9.723278867451556 9.898135916635193 0.0
9.723316350887044 0.09841820909386662 0.0
1.385819164827588 4.454539963646463 0.0
1.338343629665047 5.523111536005823 0.0
1.377179700550677 0.6809168304959698 0.0
1.418060461092743 9.285896715136046 0.0
9.91268220142518 0.1457914080939694 0.0
9.906737126737994 9.845745933882352 0.0
0.7108351382691361 6.537941170074089 0.0
1.527735020267026 6.915620208855231 0.0
1.630993885659103 7.838271825205868 0.0
2.232760943566823 7.370850737296832 0.0
2.243414218068206 6.688299277952821 0.0
2.779655053105118 7.021588754814074 0.0
2.80227799359795 7.632420170547022 0.0
3.282022065908813 7.305859666021318 0.0
3.327597298795347 7.857554136825748 0.0
3.743210251018715 7.549183328204379 0.0
3.716353232200752 7.062036086888612 0.0
4.111978858674101 7.27497101169417 0.0
4.104192177581432 6.879858986267289 0.0
4.436230765617037 7.045693351607117 0.0
4.430360014817357 6.703971783962796 0.0
4.732390145036301 6.849841042423394 0.0
5.056161327708878 5.095276573498806 0.0
5.111586796021131 4.999081142133581 0.0
5.169267363407189 5.09444870412406 0.0
5.223795108752053 4.996986220359468 0.0
5.281480803887719 5.092780870372803 0.0
5.335670761900611 4.994887492556936 0.0
5.393485214772442 5.090486192743301 0.0
5.447323082877892 4.992601527033996 0.0
5.505243219343024 5.087953380710069 0.0
5.558739102026105 4.990287787962959 0.0
5.616491581184779 5.085335255235766 0.0
5.669852346908056 4.9879269227514 0.0
5.727502713908907 5.082679981817038 0.0
5.780766004135139 4.988313988715834 0.0
5.838244881129535 5.080480568766611 0.0
5.891357695677371 4.986433849408193 0.0
5.948696036767613 5.077969900389505 0.0
6.001601341641615 4.981313698556656 0.0
6.058851024265095 5.074871552128682 0.0
6.111614020704875 4.978360695880202 0.0
6.168801161530775 5.072044953270978 0.0
6.221368818778567 4.975825765213497 0.0
6.278268309066882 5.066182320461055 0.0
6.330814273567539 4.972837984645718 0.0
6.387565032421376 5.062889771971895 0.0
6.437476667631405 4.971693683589553 0.0
[...]
POINT_DATA 2538
VECTORS disp float
1.831144258682477e-11 4.6582108318257234e-11 0.0
3.8172095696872644e-11 -1.0432834288464139e-10 0.0
0.004299999985170539 3.904011803534934e-11 0.0
0.0042999999606276925 -1.0875758873275084e-10 0.0
0.0013743590639567805 0.0005723981950065357 0.0
0.003098776691208215 0.00035979632561043934 0.0
0.0021163674890623163 0.00013138357077275848 0.0
5.01265335422158e-12 4.454186005362159e-12 0.0
9.111549984682447e-12 1.1130764168387897e-11 0.0
8.348698795181725e-12 6.901587043237582e-12 0.0
8.200826152997853e-12 6.397413844874019e-12 0.0
7.694538028812882e-12 4.77269039572111e-12 0.0
7.205354754524039e-12 3.430623805041886e-12 0.0
6.757356045540165e-12 2.00967286172425e-12 0.0
6.4003010091576425e-12 5.085677342724644e-13 0.0
5.632908517650327e-12 -1.1420184589071276e-12 0.0
5.91898178319937e-12 -2.6032573923221266e-12 0.0
5.662959771291302e-12 -4.284964225990705e-12 0.0
5.650733376481759e-12 -6.0792929083287e-12 0.0
5.804291684970123e-12 -7.873175526458106e-12 0.0
5.741140141514256e-12 -9.576379196162933e-12 0.0
6.058545793592508e-12 -1.1613215162503879e-11 0.0
6.057853198577796e-12 -1.3342407148326319e-11 0.0
6.395699723648877e-12 -1.536509109902151e-11 0.0
6.5107472409059856e-12 -1.7666896617075926e-11 0.0
6.792496096582465e-12 -1.983235829629472e-11 0.0
7.1003411828134195e-12 -2.242052081791514e-11 0.0
7.500931692751277e-12 -2.5314018019558554e-11 0.0
8.233074820398634e-12 -2.8796763373174606e-11 0.0
8.268219829258626e-12 -3.250322548583778e-11 0.0
1.1188880123872139e-11 -4.087039242661826e-11 0.0
4.835136340953364e-12 -3.750914775944233e-11 0.0
5.324808245750866e-5 -7.157226214223617e-5 0.0
9.199334126789838e-5 -0.00012358793519674262 0.0
0.00012957043267263727 -0.0001689589153511228 0.0
0.00016556727988388507 -0.00021021985248737652 0.0
0.000200467848266446 -0.00024859341280421537 0.0
0.00023499048909847003 -0.0002850246388153277 0.0
0.0002696983486418774 -0.000319670236464028 0.0
0.0003042607420885168 -0.00035280164504842616 0.0
0.0003389748106932593 -0.0003847100694339216 0.0
0.00037392061554607236 -0.0004154039560582358 0.0
0.0004091181088854117 -0.0004451378440902966 0.0
0.0004448227077535596 -0.0004739275279455935 0.0
0.0004807628949622204 -0.0005017708581539824 0.0
0.0005171203905453071 -0.0005288732522216059 0.0
0.0005541055950051078 -0.0005551941386218685 0.0
0.0005913148950846618 -0.0005806969679844977 0.0
0.0006290049047513478 -0.0006055288603161527 0.0
0.0006671616551992288 -0.0006295760072644397 0.0
0.000705757120321207 -0.0006529693408487727 0.0
0.000744809284803979 -0.0006757056197762178 0.0
0.000784365626644406 -0.0006977880109994602 0.0
0.0008243264752030069 -0.0007191984744288234 0.0
0.0008649274418175075 -0.0007400416669010329 0.0
0.0009057896084350093 -0.0007601885113297742 0.0
0.0009473381868632348 -0.0007797506416717437 0.0
0.0009891145888809034 -0.0007986223599000763 0.0
0.0010314198223478897 -0.0008169185918283368 0.0
0.0010740922311924016 -0.0008345137878029656 0.0
0.0011173661009153976 -0.0008515591391892694 0.0
0.0011608393028719136 -0.0008679405560856036 0.0
0.0012049036652803692 -0.0008837453675078238 0.0
0.0012493032838536442 -0.0008988558192231407 0.0
0.0012941413366804484 -0.0009133601315894039 0.0
0.001339269655399243 -0.0009271969750927037 0.0
0.0013849446853395873 -0.000940438695697222 0.0
0.001430780650694615 -0.0009529670437525915 0.0
0.0014770270508916476 -0.0009648602456201734 0.0
0.0015235458002408606 -0.0009760281268340442 0.0
0.001570399108539994 -0.0009865007463268636 0.0
0.001617509666605195 -0.000996354151194219 0.0
0.0016648462165267351 -0.001005433999606882 0.0
0.0017124851115420633 -0.0010138963921924062 0.0
0.001760357259408927 -0.0010216035728301772 0.0
0.0018083613545700331 -0.0010286737731479265 0.0
0.001856592968162542 -0.0010349296420641362 0.0
0.001904814352167669 -0.0010405282405779705 0.0
0.001953237817964194 -0.0010454244084594977 0.0
0.0020016780983424065 -0.0010495276214854536 0.0
0.002050148990841409 -0.0010529822517584399 0.0
0.002098764754829268 -0.0010556390782761737 0.0
0.002146936043588542 -0.0010573910313801777 0.0
0.0021955581216294776 -0.0010585306885292712 0.0
0.002242941055135481 -0.0010587154731109937 0.0
0.0022909331351216294 -0.0010581053953027883 0.0
0.0023367625625228586 -0.0010563484103295491 0.0
0.002384239516593958 -0.0010539314253270892 0.0
0.0024300582953675847 -0.0010504741880410146 0.0
0.002475788354721036 -0.0010453921218250655 0.0
0.002521640170253705 -0.0010393066617186537 0.0
0.002567746859292744 -0.001031539111434804 0.0
0.002613914171372157 -0.0010228011186759701 0.0
0.0026603953198845683 -0.0010127222772873105 0.0
0.002707132987545234 -0.0010017722945573463 0.0
0.00275397337083089 -0.0009896347267263723 0.0
0.002801035038633331 -0.0009766359020987386 0.0
0.002848049962991831 -0.0009630090841500851 0.0
0.0028947444120232062 -0.0009485555028757588 0.0
0.00294128889989907 -0.0009335221948622951 0.0
0.002987706106616615 -0.000917752892730488 0.0
0.0030339037422001066 -0.0009012507302768812 0.0
0.0030796392943872523 -0.0008841863088963006 0.0
0.0031253299769868313 -0.0008663803049432829 0.0
0.003170449288957009 -0.0008479282825163388 0.0
0.003215219967763827 -0.0008289532395543851 0.0
0.0032598060011306985 -0.000809199684808942 0.0
0.0033037823051567483 -0.0007889194439400409 0.0
0.0033474970123126323 -0.0007680011683657523 0.0
0.0033907657375563164 -0.0007464431429004008 0.0
0.0034337410870152454 -0.0007242493703875787 0.0
0.003476315910843965 -0.000701326063146194 0.0
0.003518534806662927 -0.0006777113873097349 0.0
0.0035601701823841517 -0.0006534958848265896 0.0
0.0036015321271228896 -0.0006286073942860763 0.0
0.0036425832015693975 -0.0006029619597117024 0.0
0.003683157196096818 -0.0005765848072711512 0.0
0.0037234440882610792 -0.0005495070870988609 0.0
0.0037635529264554066 -0.0005215304567126529 0.0
0.003803204645375912 -0.0004926884807181995 0.0
0.003842499685402173 -0.00046303281502129177 0.0
0.0038817684360515957 -0.0004323870605178579 0.0
0.003920976814225988 -0.00040059561616852686 0.0
0.0039599009271570635 -0.0003675883092650389 0.0
0.003998643175801599 -0.000333312219023691 0.0
0.0040375385221272765 -0.00029749443447722046 0.0
0.0040770563132608816 -0.00025973323088272727 0.0
0.004116668441312534 -0.00021977530361539648 0.0
0.004156843124032512 -0.0001767107499302168 0.0
0.004199468549752131 -0.0001291375709373327 0.0
0.004243218287570055 -7.462363292060306e-5 0.0
0.004299999994581888 -3.554607446560071e-11 0.0
0.004299999987991692 -3.933765877799275e-11 0.0
0.004299999991356455 -2.8153750440698635e-11 0.0
0.004299999991327294 -2.5083445475409178e-11 0.0
0.0042999999918724285 -2.1490189120982778e-11 0.0
0.00429999999227647 -1.8717811634132294e-11 0.0
0.004299999992434338 -1.6540150970715045e-11 0.0
0.0042999999927195035 -1.4574678554802674e-11 0.0
0.004299999992809856 -1.273978797744357e-11 0.0
0.004299999992969761 -1.095069463646629e-11 0.0
0.004299999993293241 -9.501375590367897e-12 0.0
0.004299999993253905 -7.605933767758791e-12 0.0
0.004299999993415887 -6.188318773248279e-12 0.0
0.0042999999935114915 -4.54049978346877e-12 0.0
0.004299999993535593 -2.966839887136091e-12 0.0
0.004299999993490939 -1.3128440414822518e-12 0.0
0.004299999993497852 3.028314130124581e-13 0.0
0.004299999992888196 2.110431113053388e-12 0.0
0.004299999993282689 3.5607048806612996e-12 0.0
0.004299999992302849 5.394327695056658e-12 0.0
0.004299999992285298 6.5997179017495844e-12 0.0
0.004299999991918681 7.92109898310924e-12 0.0
0.0042999999922206265 8.304244089509953e-12 0.0
0.004299999992007469 1.158923503694083e-11 0.0
0.004299999995748786 5.35309258769665e-12 0.0
0.003983402953841792 0.00023477847235818143 0.0
0.0037060836436528695 0.00034158684667191244 0.0
0.0034530679311917897 0.00038170809642443996 0.0
0.003237292915924722 0.0003781339547069312 0.0
0.0030912390412797357 0.00022896998862320672 0.0
0.003068776931149962 0.0001598666351460858 0.0
0.0030207517546707832 0.00012984298674943818 0.0
0.0029638152329306915 0.00011911437994636838 0.0
0.0028974052566393856 0.00012007952385815541 0.0
0.002825466923797403 0.0001246443812126196 0.0
0.002749125527155156 0.00013024427846568382 0.0
0.00266967353500804 0.0001376943697200398 0.0
0.0025855901986425517 0.00014380927589105464 0.0
0.0024961961757122833 0.00014782619687120732 0.0
0.0023972951799870073 0.00014980241063286561 0.0
0.002278602994706314 0.00015085215594701513 0.0
0.001960946309646387 0.00017207267596984762 0.0
0.001851686416528921 0.00018425591071887887 0.0
0.0017617211716184273 0.0001886446165476384 0.0
0.0016834881478112363 0.00019139170759550426 0.0
0.0016127825437139583 0.00019407655823928938 0.0
0.00154899112143844 0.00019767218748542383 0.0
0.0014919115881553784 0.00020364386791270786 0.0
0.0014434613424207966 0.00021393327773712285 0.0
0.001405718237291242 0.0002341063403002367 0.0
0.0013800768384033164 0.00026928068084229644 0.0
0.0013705030546323242 0.0003288333881795199 0.0
0.00137013376015785 0.0004243922610894347 0.0
0.0012135715863920474 0.0005833492374710933 0.0
0.000979298713422843 0.0005465877655043583 0.0
0.0006810173501741677 0.0004500514689202986 0.0
0.00036012645048242464 0.00029444198349480713 0.0
0.001126371706109403 -0.0008154672285993898 0.0
0.00306967678926237 -0.000844437416602879 0.0
0.001444802522655703 -0.0009200711473364194 0.0
0.002738444777598926 -0.000953894392068145 0.0
0.0017833637138035211 -0.0009887431403652989 0.0
0.0024039074295646445 -0.0010078144642220216 0.0
0.002073493845545698 -0.00101550859906269 0.0
0.0033415084776193403 -0.0007347427527181026 0.0
0.0008795483493240393 -0.0007155234162347527 0.0
0.0035444584814030167 -0.0006266628146902598 0.0
0.0006794508435612148 -0.0006094632018112443 0.0
7.035142209967663e-5 -1.3471378293023968e-5 0.0
0.004228203177502597 -1.2957226913608859e-5 0.0
0.0023053499753785942 0.00016878489784829138 0.0
0.0026391458600426585 0.00016215269616926288 0.0
0.001929550123947851 0.00017931936954400485 0.0
0.001627906055499764 0.00020971090538967038 0.0
0.0037530506078405665 -0.0005006495968728429 0.0
0.0004985330815170807 -0.0004930453891296982 0.0
4.833943616401244e-5 -2.4483525577403873e-5 0.0
0.00425003756053094 -2.214917376560321e-5 0.0
0.004197121254333116 2.9631019041743263e-6 0.0
9.472922114028316e-5 3.535588890960492e-6 0.0
0.003911957106030085 -0.0003819412820053949 0.0
0.00034978910612397125 -0.000372048147279774 0.0
0.002871733350773204 0.0001496809782819199 0.0
0.0014369510997983826 0.0002225998810127713 0.0
3.598312092645426e-5 -2.6729669956042233e-5 0.0
0.00426038648845555 -2.5179712053803043e-5 0.0
0.001640309422544795 -0.0009633894835350951 0.0
0.0019268390880585308 -0.0010056559423939448 0.0
0.0025954518928383154 -0.0009840164751186244 0.0
0.002223034648858977 -0.0010160406186479354 0.0
0.0028809429578932817 -0.0009121534988630495 0.0
0.0031979088322846654 -0.0007988927337027548 0.0
0.0013176758944019335 -0.0008838350408123408 0.0
0.0010032821753601766 -0.0007730344477572969 0.0
0.004024337835122463 -0.0002869501441311028 0.0
0.00024329752325835978 -0.0002756685733883309 0.0
0.004168821060261893 2.6721965202807352e-5 0.0
0.0001182958306796279 2.219636011200731e-5 0.0
0.004266897640656041 -2.816400413165277e-5 0.0
3.327597355222441e-5 -3.2624742935276136e-5 0.0
0.0030105645089588766 0.00014997175284270508 0.0
0.0013371194723720305 0.0002594076972151273 0.0
0.004116270947626209 4.992062664262792e-5 0.0
0.00016439728645209847 4.400892672919382e-5 0.0
5.8749578763693285e-5 -2.041498504739625e-5 0.0
0.004239086649283995 -1.9055541646768903e-5 0.0
0.002470490859913993 0.0001709495683092226 0.0
0.0017754838538023823 0.0002054212963854043 0.0
0.00013452931714794762 -0.0001593689693206481 0.0
0.0041530012542882674 -0.00016235630565726163 0.0
0.0029716317397962522 -0.0008856814129534657 0.0
0.002314565891757383 -0.0010159970310536586 0.0
0.001548406818967452 -0.0009438085123217741 0.0
0.0012197682131688628 -0.0008548728505495477 0.0
0.002502452674714086 -0.000997138992441207 0.0
0.0034209948685261474 -0.0006957390327932911 0.0
0.0007990928547977604 -0.000674078108951592 0.0
0.0036314972014115385 -0.0005784395242885915 0.0
0.0005988503463318474 -0.0005583442730897099 0.0
0.00041985578780948443 -0.0004313132630119978 0.0
0.0038330293643946407 -0.0004426486713645381 0.0
0.0008165003905187847 0.00031238409257847074 0.0
0.0035699552924936466 0.0002513573390117166 0.0
0.004267850701985343 -3.269437360237978e-5 0.0
2.8988548357162454e-5 -3.316199834407089e-5 0.0
0.0012853030220403266 0.0003583886490131591 0.0
0.00312200647364035 0.00020293440435459318 0.0
0.0001866778759148682 7.068876350378289e-5 0.0
0.004111392170406628 6.755748040832773e-5 0.0
5.865865912017226e-5 -7.152845121405012e-5 0.0
0.004234354508152356 -7.458624139684978e-5 0.0
0.003338551291864603 0.0002806468831612779 0.0
0.0034165849858372728 0.00022351327685728585 0.0
0.0036825598201587874 0.00017786563754448485 0.0
0.003531902004927355 0.0001856807913731241 0.0
0.0033274459919596443 0.0002035824006193856 0.0
0.0034027686386541565 0.00019251906458549504 0.0
0.0035980038406353493 0.00016634732489441143 0.0
0.0034763748820672165 0.00017800905921479127 0.0
0.003660404521401942 0.00014747994900844857 0.0
0.0035480608901392262 0.00015779515195782186 0.0
0.0033754595024451284 0.00018325298352930882 0.0
0.003441221273060982 0.00016197472312062892 0.0
0.003292456440522702 0.00018197020883062244 0.0
0.003345592029810269 0.00015917213870888803 0.0
0.0032098848941556654 0.00017598775062641013 0.0
0.003257790767305504 0.00014920073444187976 0.0
0.0022496710416287104 0.00011276315754060661 0.0
0.0021124221224957038 9.032619581115588e-5 0.0
0.0022197996170698277 7.972582346302327e-5 0.0
0.0021087460179942154 6.351285674816244e-5 0.0
0.002202367295344965 5.439223838155274e-5 0.0
0.002106912603898253 4.192500217432028e-5 0.0
0.00219114254961034 3.2859434639693565e-5 0.0
0.002104928963268244 2.201885132627549e-5 0.0
0.0021829823675212573 1.3342281854115375e-5 0.0
0.002103199164011305 3.5354356457067127e-6 0.0
0.0021767952823945483 -4.687294305559885e-6 0.0
0.002101860627763368 -1.379940131737221e-5 0.0
0.0021720214613327685 -2.216696596199152e-5 0.0
0.0021026965948220213 -3.064842290020782e-5 0.0
0.002168291480615808 -3.8960175963159326e-5 0.0
0.002101732120265502 -4.716424433645249e-5 0.0
0.00216490484842418 -5.533770893438971e-5 0.0
0.0020986943162054485 -6.336102841799584e-5 0.0
0.0021615748015237253 -7.149656358058854e-5 0.0
0.0020972563771065734 -7.931104608416657e-5 0.0
0.0021587955712549776 -8.7555014821602e-5 0.0
0.002096098510300731 -9.523221721851683e-5 0.0
0.0021542944681183754 -0.00010349222055461399 0.0
0.0020945918032757127 -0.00011122972757887596 0.0
0.002151622279586505 -0.00011955962123246566 0.0
0.0020942230982756963 -0.00012695321760257207 0.0
0.0021493331673307983 -0.000135731264723591 0.0
0.0020900392088837078 -0.00014217049710922914 0.0
0.0021464558937947876 -0.0001520117741931353 0.0
0.0020748568086796366 -0.00015866324347167928 0.0
0.0021474403373358854 -0.00016884006448117777 0.0
0.0020871116405997508 -0.00017658954270392946 0.0
0.0021448627985845813 -0.00018574747069827788 0.0
0.002087858903782016 -0.00019396334995214434 0.0
0.002143246740876221 -0.00020316240537747083 0.0
0.002090195781323801 -0.0002115359328552906 0.0
0.002141406509350665 -0.00022088283259721452 0.0
0.0020898081373030026 -0.00022975513589331228 0.0
0.0020297722843850177 1.3973555759766466e-5 0.0
0.002139541235647695 -0.0002391204447854644 0.0
0.002034103115145628 -7.017982837322846e-5 0.0
0.002021277796647139 -0.00017180442662991698 0.0
0.0020852144284602323 -0.00024819035859480795 0.0
0.002137282056184012 -0.0002578548999880458 0.0
0.0020807170743825784 -0.00026781132692737554 0.0
0.0020294633303084442 -0.0002563305452708644 0.0
0.002023632846653748 -0.0002769287985760931 0.0
0.0021329282302523507 -0.0002782571866025524 0.0
0.002190165827030987 -0.00026757471703088575 0.0
0.002199655846764037 -0.00017687583926935795 0.0
0.002186121927523339 -0.0002885805968165281 0.0
0.002246786347332714 -0.0002758722518213816 0.0
0.0022407472204008638 -0.00029882703079857494 0.0
0.0019729016457924243 -0.0002648925284083972 0.0
0.001969133224119867 -0.0002851284781082225 0.0
0.0023032141712647104 -0.0002849772058494603 0.0
0.0019151636830422518 -0.0002724178240310556 0.0
0.0019147159028702636 -0.0002936883020399232 0.0
0.002298180239761312 -0.000308223529282606 0.0
0.0023586146824798103 -0.0002954324753336547 0.0
0.0018570350679007212 -0.00028009827045391876 0.0
0.0018552330791976163 -0.00030204534439699684 0.0
0.002354864855161034 -0.0003185608664830603 0.0
0.0024169043296412797 -0.00030498769994823067 0.0
0.001799146048133777 -0.0002877919362461315 0.0
0.001796818975021954 -0.00031109756416718837 0.0
0.0024129920794641506 -0.0003293450188088105 0.0
0.0024765866287488982 -0.0003144101217949758 0.0
0.0017416732285894393 -0.00029429675814553896 0.0
0.0017354996388758725 -0.00031836680367195445 0.0
0.0024734484205264405 -0.0003394246575029056 0.0
0.0025372835851146906 -0.00032362711435305155 0.0
0.0016784857546878291 -0.00030083436234118834 0.0
0.0016738055129402085 -0.0003263414348882059 0.0
0.0016135390416481545 -0.00030894721340732383 0.0
0.0016178597221209988 -0.00028193331796899624 0.0
0.002403897642809075 -0.00035339942927672144 0.0
0.0025338461213782054 -0.00034965725140398315 0.0
0.0025988496488751098 -0.00033269551585435813 0.0
0.0026033437272893665 -0.00030600794567957595 0.0
0.002212978369745533 -9.625640935052061e-5 0.0
0.002667275911889655 -0.0003145950818936183 0.0
0.002672313096575039 -0.00028693419335314255 0.0
0.002738165024137074 -0.00029464609892639206 0.0
0.0016138791737768862 -0.0003365651644041733 0.0
0.0015509340763287588 -0.0003162245001419231 0.0
0.0016729831342026048 -0.0003537914798910653 0.0
0.0025935459549372925 -0.0003601231478858293 0.0
0.0015519951674060376 -0.00034462672919070175 0.0
0.0014883504043136343 -0.0003227249409573093 0.0
0.0022386058834518 -2.924423200993645e-5 0.0
0.0014891339117717073 -0.00035059924849548894 0.0
0.001425634410100593 -0.00032833893087674256 0.0
0.001426566115982911 -0.0003569553680039129 0.0
0.0013639390174114917 -0.0003326086748994173 0.0
0.0013616187837330786 -0.0003047085032188453 0.0
0.0012963189967225835 -0.0003097751234374213 0.0
0.0012949209493183312 -0.000280304605578922 0.0
0.001357386236052597 -0.00036099476071195985 0.0
0.0012248860892404576 -0.0002857345197753847 0.0
0.0012229427404447763 -0.00025555857354858576 0.0
0.0014279411185240877 -0.0003872811909250792 0.0
0.0013690716478555094 -0.0003936701096705201 0.0
0.0011546037390300226 -0.0002586344523509668 0.0
0.0011503513904725722 -0.0002292796963069046 0.0
0.0027450814234515563 -0.00026667553505270637 0.0
0.002813447133327938 -0.00027402207648536347 0.0
0.0014290961877338419 -0.00041803714346328016 0.0
0.001370895356046727 -0.0004242702691696218 0.0
0.0028211563999875353 -0.0002452222422235031 0.0
0.0028926893450178337 -0.00025282120648808344 0.0
0.002882061360450146 -0.000284400315075994 0.0
0.0029616726384653395 -0.00026147739961227 0.0
0.002952390836693279 -0.00029384285181831293 0.0
0.0030319492717196094 -0.00026842217655279787 0.0
0.0030267139423954224 -0.00030057509654436487 0.0
0.003108762838619883 -0.000271852348213215 0.0
0.0030966845101317382 -0.00030469335453454254 0.0
0.0031140130006081426 -0.00024105188743613786 0.0
0.0031799146088484155 -0.0002764932254136503 0.0
0.0031635832894947686 -0.0003091988362450484 0.0
0.0014308432941387691 -0.00044940131620127387 0.0
0.0010784488919570615 -0.000231642075676253 0.0
0.001072850568206336 -0.00020190306336060284 0.0
0.003087290713512813 -0.00033840627623142556 0.0
0.003151719315961514 -0.0003424210645033168 0.0
0.003226745280527431 -0.0003127716889925927 0.0
0.003080873229434759 -0.0003729114119973634 0.0
0.0013739479486145887 -0.0004558531020060657 0.0
0.0032151664831354693 -0.00034552573177484727 0.0
0.003288433863689686 -0.0003150807277504231 0.0
0.0014323700832568232 -0.00048168073504036653 0.0
0.0013764927101045095 -0.0004883681945306274 0.0