# vtk DataFile Version 2.0
phase field modeling fracture
ASCII
DATASET UNSTRUCTURED_GRID
POINTS 2538 float
0.0 0.0 0.0
10.0 0.0 0.0
0.0 10.0 0.0
10.0 10.0 0.0
0.0 4.9995 0.0
0.0 5.0005 0.0
5.0 5.0 0.0
0.9416964895726688 0.0 0.0
1.803581725054446 0.0 0.0
2.592419885431098 0.0 0.0
3.314401822861676 0.0 0.0
3.975193910351406 0.0 0.0
4.579982132660152 0.0 0.0
5.133512780936812 0.0 0.0
5.640130319506143 0.0 0.0
6.103810708661955 0.0 0.0
6.528192895506818 0.0 0.0
6.916607540127679 0.0 0.0
7.272102969376355 0.0 0.0
7.597469242948583 0.0 0.0
7.895259826292669 0.0 0.0
8.167811885738017 0.0 0.0
8.417264413845215 0.0 0.0
8.645575169389538 0.0 0.0
8.854535961159101 0.0 0.0
9.045786767735546 0.0 0.0
9.220828555767493 0.0 0.0
9.38103509633881 0.0 0.0
9.527663687265145 0.0 0.0
9.661865124984566 0.0 0.0
9.784692609918062 0.0 0.0
9.897110148790482 0.0 0.0
10.0 0.09999999999992584 0.0
10.0 0.199999999999856 0.0
10.0 0.2999999999997771 0.0
10.0 0.3999999999996677 0.0
10.0 0.4999999999995511 0.0
10.0 0.5999999999994683 0.0
10.0 0.6999999999993983 0.0
10.0 0.7999999999993286 0.0
10.0 0.8999999999992587 0.0
10.0 0.9999999999991888 0.0
10.0 1.099999999999119 0.0
10.0 1.199999999999033 0.0
10.0 1.299999999998852 0.0
10.0 1.399999999998576 0.0
10.0 1.499999999998284 0.0
10.0 1.599999999997992 0.0
10.0 1.6999999999977 0.0
10.0 1.799999999997408 0.0
10.0 1.899999999997116 0.0
10.0 1.999999999996825 0.0
10.0 2.099999999996533 0.0
10.0 2.199999999996241 0.0
10.0 2.299999999995949 0.0
10.0 2.399999999995657 0.0
10.0 2.499999999995365 0.0
10.0 2.599999999995073 0.0
10.0 2.699999999994782 0.0
10.0 2.79999999999449 0.0
10.0 2.899999999994198 0.0
10.0 2.999999999993906 0.0
10.0 3.099999999993614 0.0
10.0 3.199999999993322 0.0
10.0 3.299999999993029 0.0
10.0 3.399999999992738 0.0
10.0 3.499999999992446 0.0
10.0 3.599999999992154 0.0
10.0 3.699999999991863 0.0
10.0 3.799999999991571 0.0
10.0 3.899999999991278 0.0
10.0 3.999999999991022 0.0
10.0 4.099999999991035 0.0
10.0 4.199999999991187 0.0
10.0 4.299999999991338 0.0
10.0 4.399999999991491 0.0
10.0 4.499999999991642 0.0
10.0 4.599999999991795 0.0
10.0 4.699999999991947 0.0
10.0 4.799999999992099 0.0
10.0 4.89999999999225 0.0
10.0 4.999999999992403 0.0
10.0 5.099999999992555 0.0
10.0 5.199999999992706 0.0
10.0 5.299999999992858 0.0
10.0 5.39999999999301 0.0
10.0 5.499999999993161 0.0
10.0 5.599999999993313 0.0
10.0 5.699999999993466 0.0
10.0 5.799999999993618 0.0
10.0 5.899999999993771 0.0
10.0 5.999999999993922 0.0
10.0 6.099999999994074 0.0
10.0 6.199999999994227 0.0
10.0 6.299999999994378 0.0
10.0 6.39999999999453 0.0
10.0 6.499999999994682 0.0
10.0 6.599999999994833 0.0
10.0 6.699999999994986 0.0
10.0 6.799999999995138 0.0
10.0 6.899999999995289 0.0
10.0 6.999999999995442 0.0
10.0 7.099999999995594 0.0
10.0 7.199999999995747 0.0
10.0 7.299999999995897 0.0
10.0 7.39999999999605 0.0
10.0 7.499999999996202 0.0
10.0 7.599999999996353 0.0
10.0 7.699999999996505 0.0
10.0 7.799999999996658 0.0
10.0 7.899999999996808 0.0
10.0 7.999999999996962 0.0
10.0 8.099999999997113 0.0
10.0 8.199999999997265 0.0
10.0 8.299999999997418 0.0
10.0 8.399999999997569 0.0
10.0 8.499999999997721 0.0
10.0 8.599999999997873 0.0
10.0 8.699999999998024 0.0
10.0 8.799999999998176 0.0
10.0 8.899999999998329 0.0
10.0 8.99999999999848 0.0
10.0 9.099999999998634 0.0
10.0 9.199999999998786 0.0
10.0 9.299999999998937 0.0
10.0 9.399999999999089 0.0
10.0 9.499999999999241 0.0
10.0 9.599999999999392 0.0
10.0 9.699999999999545 0.0
10.0 9.799999999999697 0.0
10.0 9.899999999999848 0.0
9.897110148790565 10.0 0.0
9.784692609918244 10.0 0.0
9.66186512498486 10.0 0.0
9.527663687265571 10.0 0.0
9.381035096339392 10.0 0.0
9.220828555768257 10.0 0.0
9.045786767736512 10.0 0.0
8.854535961160305 10.0 0.0
8.645575169391027 10.0 0.0
8.417264413847017 10.0 0.0
8.167811885740178 10.0 0.0
7.895259826295246 10.0 0.0
7.597469242951631 10.0 0.0
7.272102969379938 10.0 0.0
6.916607540131873 10.0 0.0
6.528192895511704 10.0 0.0
6.103810708667616 10.0 0.0
5.640130319512691 10.0 0.0
5.13351278094435 10.0 0.0
4.579982132668816 10.0 0.0
3.975193910361222 10.0 0.0
3.314401822869852 10.0 0.0
2.592419885437257 10.0 0.0
1.803581725058137 10.0 0.0
0.9416964895740705 10.0 0.0
0.0 9.00010000000243 0.0
0.0 8.000200000005481 0.0
0.0 7.000300000005135 0.0
0.0 6.000400000002569 0.0
0.901790731451151 5.000409820926855 0.0
1.657200899774397 5.000334279910023 0.0
2.289991063707192 5.000271000893629 0.0
2.820065163538221 5.000217993483646 0.0
3.264096435579811 5.000173590356442 0.0
3.636051481595835 5.00013639485184 0.0
3.947629914072366 5.000105237008593 0.0
4.208632181002628 5.0000791367819 0.0
4.427267949625672 5.000057273205037 0.0
4.610414277633563 5.000038958572237 0.0
4.763831845154243 5.000023616815485 0.0
4.892346298799659 5.00001076537012 0.0
4.892346298799748 4.99998923462988 0.0
4.763831845154455 4.999976383184515 0.0
4.610414277633943 4.999961041427763 0.0
4.427267949626277 4.999942726794963 0.0
4.208632181003523 4.9999208632181 0.0
3.94762991407365 4.999894762991407 0.0
3.636051481597624 4.99986360514816 0.0
3.264096435582253 4.999826409643559 0.0
2.820065163541503 4.999782006516354 0.0
2.289991063711534 4.999728999106371 0.0
1.657200899778495 4.999665720089978 0.0
0.9017907314530094 4.999590179073145 0.0
0.0 3.999600000002013 0.0
0.0 2.999700000005187 0.0
0.0 1.99980000000512 0.0
0.0 0.9999000000025537 0.0
9.897889398521345 2.93573355845387 0.0
9.906568249974548 7.060009441434234 0.0
9.913122631074113 3.64016132281653 0.0
9.922462129543863 6.354535290629151 0.0
9.917693659967533 4.354211663134567 0.0
9.909873057440208 5.637584487339942 0.0
9.914183254994697 4.950672966925282 0.0
9.913885043715895 7.666887930262611 0.0
9.91009668007573 2.351889069770817 0.0
9.905135696074536 8.138152454502785 0.0
9.913397459621809 1.849999999997262 0.0
7.099302372137626 0.297750452375005 0.0
7.095143729410097 9.700359990366296 0.0
4.942912558701401 5.095838627899509 0.0
4.315009232304429 5.165022115481685 0.0
4.946182472483878 4.906763777264103 0.0
4.317967462990024 4.825955043772673 0.0
9.916390871492647 8.64999999999792 0.0
9.921504649680616 1.368376469890358 0.0
8.292538149791614 0.206877570318844 0.0
8.292538149793597 9.793122429681448 0.0
5.884594439766573 9.587645267048616 0.0
5.794826292691579 0.3794853783929359 0.0
9.913397459621425 9.049999999998557 0.0
9.908526577714177 0.9568239351922434 0.0
3.456851160380649 5.315740054130451 0.0
3.457889657868442 4.707121019609468 0.0
8.945214200703926 0.1503383337970344 0.0
8.950161364448409 9.8413906539257 0.0
9.913862335499305 4.055887885208452 0.0
9.916697353372683 4.650158482607802 0.0
9.919076340414442 6.049999999994006 0.0
9.906994308667635 5.25749687748192 0.0
9.917490342358025 6.655979201891897 0.0
9.915757520293784 7.343848891656911 0.0
9.910049507471042 3.363474386285078 0.0
9.914471988502868 2.647400064832979 0.0
9.91474124160965 9.337490423485129 0.0
9.916971008170838 0.6499999999994355 0.0
4.307157269264427 9.509674045029644 0.0
4.331527375865619 0.4401616696422582 0.0
9.45434939180249 9.878397030523757 0.0
9.457696120412969 0.1270877537061785 0.0
2.555070293622606 5.422044496190925 0.0
2.566232917480916 4.608001224030952 0.0
3.026511860837692 9.332320638257093 0.0
2.945561971800619 0.5895662714727601 0.0
7.7395404387124 0.2511088946967771 0.0
7.736379255744154 9.745848826372828 0.0
4.687135269408529 5.122111433928926 0.0
4.688420821504113 4.871895064967488 0.0
9.910554884115975 0.3448356354522978 0.0
9.911230082250466 9.65764729394159 0.0
9.921953841410854 6.851023993342036 0.0
9.912065178606017 5.448170483544033 0.0
9.911660025326261 3.861846960030188 0.0
9.914847467973438 3.14501593945607 0.0
9.913397459621425 5.849999999993703 0.0
9.913397459621425 7.849999999996735 0.0
9.906916878988277 2.15455769998631 0.0
9.913397459621425 8.349999999997479 0.0
9.909472363117661 1.640528221515488 0.0
9.913987325695956 1.152857110636247 0.0
9.913397459621425 8.849999999998241 0.0
0.9100099990995943 2.614215977520411 0.0
0.8395284981715456 7.451196254860987 0.0
9.723278867451556 9.898135916635193 0.0
9.723316350887044 0.09841820909386662 0.0
1.385819164827588 4.454539963646463 0.0
1.338343629665047 5.523111536005823 0.0
1.377179700550677 0.6809168304959698 0.0
1.418060461092743 9.285896715136046 0.0
9.91268220142518 0.1457914080939694 0.0
9.906737126737994 9.845745933882352 0.0
0.7108351382691361 6.537941170074089 0.0
1.527735020267026 6.915620208855231 0.0
1.630993885659103 7.838271825205868 0.0
2.232760943566823 7.370850737296832 0.0
2.243414218068206 6.688299277952821 0.0
2.779655053105118 7.021588754814074 0.0
2.80227799359795 7.632420170547022 0.0
3.282022065908813 7.305859666021318 0.0
3.327597298795347 7.857554136825748 0.0
3.743210251018715 7.549183328204379 0.0
3.716353232200752 7.062036086888612 0.0
4.111978858674101 7.27497101169417 0.0
4.104192177581432 6.879858986267289 0.0
4.436230765617037 7.045693351607117 0.0
4.430360014817357 6.703971783962796 0.0
4.732390145036301 6.849841042423394 0.0
5.056161327708878 5.095276573498806 0.0
5.111586796021131 4.999081142133581 0.0
5.169267363407189 5.09444870412406 0.0
5.223795108752053 4.996986220359468 0.0
5.281480803887719 5.092780870372803 0.0
5.335670761900611 4.994887492556936 0.0
5.393485214772442 5.090486192743301 0.0
5.447323082877892 4.992601527033996 0.0
5.505243219343024 5.087953380710069 0.0
5.558739102026105 4.990287787962959 0.0
5.616491581184779 5.085335255235766 0.0
5.669852346908056 4.9879269227514 0.0
5.727502713908907 5.082679981817038 0.0
5.780766004135139 4.988313988715834 0.0
5.838244881129535 5.080480568766611 0.0
5.891357695677371 4.986433849408193 0.0
5.948696036767613 5.077969900389505 0.0
6.001601341641615 4.981313698556656 0.0
6.058851024265095 5.074871552128682 0.0
6.111614020704875 4.978360695880202 0.0
6.168801161530775 5.072044953270978 0.0
6.221368818778567 4.975825765213497 0.0
6.278268309066882 5.066182320461055 0.0
6.330814273567539 4.972837984645718 0.0
6.387565032421376 5.062889771971895 0.0
6.437476667631405 4.971693683589553 0.0
[...]
POINT_DATA 2538
VECTORS disp float
1.2928249338847665e-11 2.0482685397816895e-11 0.0
4.910774670248803e-12 -1.2297702084031872e-11 0.0
0.0015999999998991714 2.92342203096048e-12 0.0
0.0015999999770872273 -5.1319567387982597e-11 0.0
0.0007268774151917893 0.00035011817236914723 0.0
0.0012334855479243093 -3.229167296511097e-6 0.0
0.0009062830309296342 -4.356910319698556e-5 0.0
-1.5516915215410085e-12 -3.7213178556263865e-12 0.0
1.7633037009973382e-12 1.0502012273654904e-12 0.0
9.946550854753494e-13 -1.0423196440353966e-12 0.0
9.687093150540228e-13 -7.902956116268267e-13 0.0
4.711259276237743e-13 -7.457467631275218e-13 0.0
5.313724578523963e-13 -1.0638568668777709e-12 0.0
3.869212971542721e-13 -1.1316985362635545e-12 0.0
3.23449358779335e-13 -1.449673114388531e-12 0.0
1.755525958562363e-13 -1.743143897195259e-12 0.0
3.3929979547810744e-13 -2.13774860605412e-12 0.0
3.2868601066517346e-13 -2.4528167397537644e-12 0.0
4.0962533993501513e-13 -2.7454549138273884e-12 0.0
4.824457266254178e-13 -2.9991459690012938e-12 0.0
4.757622186298533e-13 -3.0877240386053835e-12 0.0
6.239410445107166e-13 -3.3298644398866635e-12 0.0
6.024033783569777e-13 -3.327506279440897e-12 0.0
6.332261310385573e-13 -3.499185294086486e-12 0.0
7.459429900888831e-13 -3.5960110577889006e-12 0.0
7.101499789970825e-13 -3.674105542103077e-12 0.0
7.608662831172738e-13 -3.826025436496408e-12 0.0
8.399249446078385e-13 -3.992930087574433e-12 0.0
8.956468762827151e-13 -4.1882440231858675e-12 0.0
8.437961165854732e-13 -4.466250077275529e-12 0.0
1.2980387277252298e-12 -5.1024816611182825e-12 0.0
3.3502679469479056e-13 -4.149585224354051e-12 0.0
2.2169246209294513e-5 -1.1196949151621874e-5 0.0
3.9460636175117805e-5 -2.007888386987851e-5 0.0
5.660327428801446e-5 -2.8014197493437443e-5 0.0
7.298318854968374e-5 -3.549052665876052e-5 0.0
8.856312927558508e-5 -4.257972308856672e-5 0.0
0.00010371952844984153 -4.95528955970502e-5 0.0
0.00011876072611027799 -5.6199310133507595e-5 0.0
0.00013337264163133512 -6.268150374478329e-5 0.0
0.00014774848099658608 -6.906321099349486e-5 0.0
0.00016196803696758486 -7.523228105260159e-5 0.0
0.0001759500100564823 -8.131746430796878e-5 0.0
0.00018988231336118826 -8.725132597370446e-5 0.0
0.00020373383208506998 -9.300960094829983e-5 0.0
0.00021745819288579278 -9.863838081065139e-5 0.0
0.00023119920459505552 -0.00010416363920553715 0.0
0.00024478404385572494 -0.00010954272560711186 0.0
0.00025839700907483604 -0.00011484013521648154 0.0
0.0002720746326961596 -0.00011997586563458211 0.0
0.00028569255605553537 -0.00012502010352995446 0.0
0.00029931034483589644 -0.0001299990770055992 0.0
0.00031298587400816966 -0.00013488770894397773 0.0
0.00032659815016296273 -0.00013971448431693097 0.0
0.0003403178894126484 -0.00014441745412936376 0.0
0.000353936194078377 -0.00014901506801611776 0.0
0.0003677226993770163 -0.0001535027973459012 0.0
0.00038139669601080806 -0.0001578505873468845 0.0
0.00039513462622294893 -0.000162135468503236 0.0
0.0004088318732793471 -0.00016618028671635767 0.0
0.00042276226110012544 -0.00017013593390379354 0.0
0.0004364517116517409 -0.0001739595376265842 0.0
0.00045033823809545947 -0.00017758147213055251 0.0
0.00046425163182708723 -0.0001809181049517243 0.0
0.00047818095292406694 -0.00018400373626320963 0.0
0.0004919221208571777 -0.00018671731054339288 0.0
0.0005059046794633376 -0.00018933209456518414 0.0
0.0005197367094870735 -0.00019187558589051535 0.0
0.0005333875004666023 -0.00019467099573789736 0.0
0.0005478019737414718 -0.000197528431306629 0.0
0.0005624312994953724 -0.0002006700566498897 0.0
0.0005778297720164067 -0.00020398793837574444 0.0
0.0005938733422973373 -0.0002075080382863774 0.0
0.0006100834833603979 -0.0002116001472553997 0.0
0.0006263532890037687 -0.00021550105589509784 0.0
0.0006412432963150083 -0.00021999341380143548 0.0
0.000656724044430726 -0.0002235417159132674 0.0
0.0006715356360576108 -0.00022735301960098887 0.0
0.0006865177595999433 -0.00023103485458236082 0.0
0.0007024458600843498 -0.0002338344829866998 0.0
0.000717656259376129 -0.00023730033952149316 0.0
0.0007345605950422584 -0.00023977235975300765 0.0
0.0007500477140306841 -0.00024286239783790256 0.0
0.0007656294890106626 -0.00024597970392721227 0.0
0.0007796794105529119 -0.00024942315243020726 0.0
0.0007944533345042009 -0.00025206624160152943 0.0
0.0008078693980762076 -0.00025482168313233544 0.0
0.0008222844015553705 -0.0002569904370835099 0.0
0.0008365309429256871 -0.00025881577950360486 0.0
0.0008512144882579019 -0.0002601538411907604 0.0
0.0008664262668514268 -0.00026139946192677173 0.0
0.0008822174436142982 -0.0002623380329699928 0.0
0.0008985201084985771 -0.00026320195840401074 0.0
0.0009153663674698427 -0.0002638769253122987 0.0
0.0009330330855391431 -0.0002645152871362702 0.0
0.0009509905797618401 -0.00026490770547434294 0.0
0.0009694551149753836 -0.0002653518121038685 0.0
0.0009881771536395436 -0.0002658146081795443 0.0
0.0010058895200620018 -0.00026614191851634904 0.0
0.0010228242759363878 -0.00026639771977271515 0.0
0.001039682189642865 -0.00026635556553936254 0.0
0.0010568751167721884 -0.00026596661565922414 0.0
0.0010736295922710594 -0.00026501444435854827 0.0
0.001090758667806629 -0.0002633264703489713 0.0
0.0011073100532293081 -0.0002612243980577117 0.0
0.0011232733199155777 -0.0002585477034932548 0.0
0.0011391673735406558 -0.0002553362793889527 0.0
0.0011533141694598987 -0.00025293216675143507 0.0
0.0011674971155143995 -0.00025049763176944906 0.0
0.0011814271790666613 -0.0002476469143724018 0.0
0.0011958106286971597 -0.0002445851285564214 0.0
0.0012093147564780403 -0.00024087585019901366 0.0
0.0012244828093364594 -0.00023746996421068718 0.0
0.0012393272397002082 -0.00023438367945725457 0.0
0.0012550189053910613 -0.0002319714151114354 0.0
0.0012705757176250348 -0.00022875081952206396 0.0
0.0012847504653349128 -0.00022457182911953398 0.0
0.0012989338209215032 -0.0002195902525709206 0.0
0.0013142248855386339 -0.0002128819478098039 0.0
0.001329647495948905 -0.0002049188919204912 0.0
0.0013451983552476173 -0.0001966953281472193 0.0
0.0013614246216868576 -0.00018793265810681322 0.0
0.0013784435578650812 -0.00017775238249875556 0.0
0.0013955706574411287 -0.00016623737422301793 0.0
0.0014134187218400698 -0.00015354681504439868 0.0
0.0014324086795399198 -0.00013970015096589135 0.0
0.0014533342793683198 -0.0001243139135944812 0.0
0.001475899956509553 -0.00010720420831875161 0.0
0.0015004468775721964 -8.796915839103042e-5 0.0
0.001528880852166243 -6.558603014195765e-5 0.0
0.0015601854737705553 -3.876196548737832e-5 0.0
0.0015999999996917037 -2.7835465474845375e-12 0.0
0.0015999999961358788 -6.3574283038082334e-12 0.0
0.0015999999987069352 -9.476821942674387e-13 0.0
0.001599999998002487 -1.0836498622163064e-12 0.0
0.0015999999984441767 -3.0117987471302837e-13 0.0
0.0015999999984598573 1.2911158281058833e-13 0.0
0.001599999998474761 3.200146589234696e-13 0.0
0.0015999999986290214 4.703324316592367e-13 0.0
0.0015999999986496692 5.978910733761819e-13 0.0
0.0015999999987462322 6.536782115657258e-13 0.0
0.0015999999988105128 7.079189019542618e-13 0.0
0.0015999999988855619 8.339644472097382e-13 0.0
0.001599999998885546 9.50603480330795e-13 0.0
0.0015999999989021667 1.098119694131884e-12 0.0
0.0015999999988927243 1.2396004737664198e-12 0.0
0.0015999999988873263 1.3929326536189214e-12 0.0
0.0015999999988714423 1.524546320798213e-12 0.0
0.001599999998848398 1.706083000569207e-12 0.0
0.0015999999989165323 1.82067366729151e-12 0.0
0.0015999999988939202 1.8900599259996523e-12 0.0
0.0015999999989646158 1.8715679003411254e-12 0.0
0.0015999999989938858 1.7447987266480258e-12 0.0
0.0015999999992125347 1.6153261287296612e-12 0.0
0.0015999999995109442 1.7940081404161013e-12 0.0
0.0015999999996571185 1.315038281614793e-12 0.0
0.0015029091043002394 2.8352856665649756e-5 0.0
0.0014202732134215039 3.637470781954286e-5 0.0
0.0013428811202639977 2.4828786800343692e-5 0.0
0.0012708624048079057 8.287538355536535e-6 0.0
0.0012197842740187036 -4.474853644986197e-5 0.0
0.001208610053082979 -7.078839773329575e-5 0.0
0.0012026438191594818 -0.00010154333707798632 0.0
0.0011900452421287023 -0.00012049832229389246 0.0
0.0011732248166237311 -0.00013195854902855222 0.0
0.0011522547287687352 -0.00013701640694556351 0.0
0.0011277113297293278 -0.00013753988295158142 0.0
0.0011009523636217459 -0.00013123584989200158 0.0
0.0010716333554744457 -0.00012108369283604173 0.0
0.0010405293169770521 -0.00010778264682460876 0.0
0.0010059618045868994 -9.179124083085378e-5 0.0
0.0009651448302722155 -7.319413219594598e-5 0.0
0.0008712108459875073 -4.35373402857376e-6 0.0
0.0008451522820048639 1.827856769485784e-5 0.0
0.0008225611185591535 3.630527712775269e-5 0.0
0.0008019235636420571 5.3614155594740216e-5 0.0
0.0007822572687365751 7.076018684750864e-5 0.0
0.0007644366276260473 8.858811407025252e-5 0.0
0.0007479700175648875 0.00010793666230877386 0.0
0.0007337122779241135 0.00012724278472037168 0.0
0.0007237021874943187 0.00015233508424420357 0.0
0.0007155437646452545 0.000179081713286364 0.0
0.0007171565020211186 0.00022188429705977602 0.0
0.000715386538855625 0.000270345225385112 0.0
0.0006499411982968854 0.00034977881408005665 0.0
0.0005556142517584929 0.00034121367273802353 0.0
0.0004354029897218498 0.0002952028720135613 0.0
0.00027099581171030504 0.00020078705145089694 0.0
0.00042551921313557523 -0.00016442332507685464 0.0
0.001067943267000244 -0.00024978259112928353 0.0
0.000523810552991764 -0.00018646464633514557 0.0
0.000942835460160362 -0.00025280707467306484 0.0
0.000631622470818744 -0.0002105771430247736 0.0
0.0008265260297416633 -0.0002456768243713482 0.0
0.0007248236936862209 -0.00022804168572779324 0.0
0.0011649571232830178 -0.00023824828658648253 0.0
0.0003450000765943302 -0.00014128421837110092 0.0
0.001232583150511955 -0.00021829972897175176 0.0
0.0002762985342832445 -0.00011716753615898773 0.0
2.8971671709497006e-5 -7.336971095818751e-6 0.0
0.00156158153058624 8.659425111239491e-7 0.0
0.0009519243002041466 -4.488248005390247e-5 0.0
0.001069686738975522 -0.00011185888458044494 0.0
0.0008411051638467262 -1.2434245156489717e-5 0.0
0.0007635082315599713 7.042223181595017e-5 0.0
0.0013106010427607231 -0.00019395443876817604 0.0
0.0002105564922905393 -9.188752795321222e-5 0.0
2.413108784876901e-5 -6.393072930999962e-6 0.0
0.0015726348293906135 -1.0131849097916642e-6 0.0
0.0015458998814138515 3.1813835251495903e-6 0.0
3.315457987253435e-5 -3.987148979383445e-6 0.0
0.0013755615238936639 -0.00015744187418464167 0.0
0.00015249045333667657 -6.67343621135928e-5 0.0
0.0011489595687984373 -0.0001203992646012206 0.0
0.0007047578513135942 0.00012246520928093027 0.0
1.9183481718143103e-5 -4.971064796364157e-6 0.0
0.001577428587038301 -1.5222453154912776e-6 0.0
0.0005846223199882192 -0.0001987170816032105 0.0
0.0006768803717957581 -0.00022079653815222612 0.0
0.0008901163011140016 -0.0002508771273004258 0.0
0.0007712136581474359 -0.0002366208328081104 0.0
0.0009981536408112791 -0.00025298329535979985 0.0
0.0011164404651221635 -0.0002466641870050333 0.0
0.00048575745481920993 -0.00017890401014645572 0.0
0.0003858165316156239 -0.00015435263666726745 0.0
0.0014279215574746387 -0.00012288088359814467 0.0
0.00010798026950020872 -4.727755698761678e-5 0.0
0.0015358256525060453 4.450550831266819e-6 0.0
4.636129750438384e-5 9.50447692214951e-7 0.0
0.0015812894198302474 -2.729381922321453e-6 0.0
1.772397350872096e-5 -4.8193704392649926e-6 0.0
0.0011981592435732968 -0.00010149367880702886 0.0
0.0006808688198409322 0.00016634371132358494 0.0
0.0015192737107719424 3.5686199686786598e-6 0.0
7.65909067135713e-5 5.164127081716103e-6 0.0
2.7108949322461402e-5 -7.256401101678985e-6 0.0
0.0015672709100870161 -2.5659955239475174e-7 0.0
0.0010117832784196782 -8.533426564882163e-5 0.0
0.0008045698675675212 3.481116110418535e-5 0.0
6.013980610673447e-5 -2.5006171257658646e-5 0.0
0.0015000368400174527 -6.966834818101646e-5 0.0
0.0010316539821118571 -0.00025362383218639057 0.0
0.0007991167165676445 -0.00024264778162907946 0.0
0.0005549663760559125 -0.00019243008898427597 0.0
0.0004551368920579461 -0.00017277007860929335 0.0
0.0008582915766956602 -0.00024862713857620576 0.0
0.001191124660460483 -0.00023248081309600217 0.0
0.00031778414124301744 -0.0001318980207849409 0.0
0.0012648574018809232 -0.00021067707359751634 0.0
0.00024745201326801673 -0.00010596755516972158 0.0
0.00018030553372146624 -7.899985674375491e-5 0.0
0.0013421939821116082 -0.0001766624531074316 0.0
0.00047571165880311257 0.0001882533155924481 0.0
0.0013600419134873628 -4.249770531596886e-6 0.0
0.001580941204336218 -6.082052185444607e-6 0.0
1.4816655000508865e-5 -4.407737234284379e-6 0.0
0.0006725965144813572 0.00023850522418115418 0.0
0.001228507351197753 -5.309167775844661e-5 0.0
0.00010398535053074973 1.480005405648932e-5 0.0
0.0015300072940054546 4.466353318972814e-6 0.0
2.6270066192595863e-5 -1.0008933738829484e-5 0.0
0.0015549872419993863 -2.858127173359177e-5 0.0
0.0012953989759117795 -1.7818018954238733e-5 0.0
0.0012997160175384122 -2.8125205702088957e-5 0.0
0.001377069639029976 -1.0179086570772522e-5 0.0
0.0013150309192255143 -2.3694485250148928e-5 0.0
0.001254453910793855 -4.696379275107724e-5 0.0
0.0012585886936151234 -3.632704455443235e-5 0.0
0.001321692629548964 -1.6988893289516634e-5 0.0
0.0012670472563031164 -2.2697744560283853e-5 0.0
0.00133254863080587 -8.544808144018988e-6 0.0
0.0012811077457643184 -9.974799818792805e-6 0.0
0.0012210112975920488 -2.396149316568909e-5 0.0
0.0012334477742167844 -9.118660648253717e-6 0.0
0.0011825671805764835 -2.0229848138415218e-5 0.0
0.0011922936700397404 -6.477472400607979e-6 0.0
0.0011475404808504804 -1.5059824064571797e-5 0.0
0.0011568107971155956 -2.2226539775142296e-6 0.0
0.0009359558290086067 -4.328942785205133e-5 0.0
0.0008940353653124588 -5.254496641207199e-5 0.0
0.0009184413618332773 -4.6693960137280406e-5 0.0
0.0008821749737657243 -5.632246209659755e-5 0.0
0.000904336086519631 -5.096520450974308e-5 0.0
0.0008721729988561582 -5.913659600910621e-5 0.0
0.0008916950947314862 -5.3397938498391336e-5 0.0
0.0008623085864127157 -6.093933342918096e-5 0.0
0.0008800189035688151 -5.525188271758278e-5 0.0
0.0008526984556837641 -6.258635419501202e-5 0.0
0.0008692827324379791 -5.699360629539357e-5 0.0
0.0008436637001976199 -6.379434569405725e-5 0.0
0.0008594476824396682 -5.867547812391821e-5 0.0
0.0008357573080368698 -6.450337361357476e-5 0.0
0.0008503514974529137 -5.953379933229816e-5 0.0
0.0008276010206310521 -6.513386609931782e-5 0.0
0.000841810339097752 -6.050465363316413e-5 0.0
0.0008192595203792736 -6.604886627800757e-5 0.0
0.0008337810220194655 -6.160667867287642e-5 0.0
0.0008120308346845197 -6.645857124102805e-5 0.0
0.0008264230310769474 -6.23496616693336e-5 0.0
0.0008052868826015362 -6.690542351344966e-5 0.0
0.0008189374496618909 -6.318317925190166e-5 0.0
0.0007986985425666308 -6.759655759722202e-5 0.0
0.0008122789042876248 -6.42758055336493e-5 0.0
0.0007929467944984576 -6.84517489076048e-5 0.0
0.0008060070031729226 -6.54275676820319e-5 0.0
0.0007864676080853588 -6.968147733657885e-5 0.0
0.000799837695731456 -6.687866044241204e-5 0.0
0.0007765968690333847 -7.184645398665074e-5 0.0
0.0007950116225684916 -6.83967344927221e-5 0.0
0.0007749547444398188 -7.243329675611422e-5 0.0
0.0007896013736334973 -7.012375556094547e-5 0.0
0.0007704512018105708 -7.406722578312632e-5 0.0
0.0007846702515524714 -7.215391787368418e-5 0.0
0.00076673097215666 -7.582105087041169e-5 0.0
0.0007799084771961175 -7.435025078152737e-5 0.0
0.0007624115055843042 -7.791676189303598e-5 0.0
0.000833098551201297 -6.623734775137295e-5 0.0
0.0007753636621724725 -7.678804934777277e-5 0.0
0.0007967183698459687 -7.036424594533415e-5 0.0
0.000756598976998956 -7.564695784786591e-5 0.0
0.0007571119582324461 -8.04628153229137e-5 0.0
0.0007709342796015193 -7.952124014559286e-5 0.0
0.0007519696340626883 -8.32891723261046e-5 0.0
0.0007385943788690712 -8.38641431996492e-5 0.0
0.0007330106720917608 -8.672151734934498e-5 0.0
0.0007658959291508638 -8.26779223668677e-5 0.0
0.0007850972353299122 -7.868669806068102e-5 0.0
0.0008081638810985973 -6.612923583051481e-5 0.0
0.0007802335042448918 -8.21469123837603e-5 0.0
0.0008007075269050657 -7.759877144562531e-5 0.0
0.0007951102048268952 -8.171571739935628e-5 0.0
0.000719737010798319 -8.712089484120769e-5 0.0
0.000714984872360019 -8.972299975748907e-5 0.0
0.0008162324561932232 -7.680440179350169e-5 0.0
0.0007006171946654162 -9.00650428278778e-5 0.0
0.0006968543895766923 -9.25731993948339e-5 0.0
0.0008110798414763623 -8.119773015053988e-5 0.0
0.0008313495285809676 -7.647394139282705e-5 0.0
0.0006812903615156954 -9.28099682766834e-5 0.0
0.000677184604164566 -9.529096764242431e-5 0.0
0.0008267793666307119 -8.106045915585455e-5 0.0
0.0008476157912023794 -7.605070384266969e-5 0.0
0.0006619585599941023 -9.526410790247973e-5 0.0
0.0006576327220872096 -9.788361359484698e-5 0.0
0.0008429564159623783 -8.113268452270562e-5 0.0
0.0008644865575259685 -7.571879100483739e-5 0.0
0.0006427621813156905 -9.744463398022754e-5 0.0
0.0006373142088637323 -0.00010008367562210393 0.0
0.0008600892610339043 -8.115026396099012e-5 0.0
0.0008818824174664014 -7.547369273526752e-5 0.0
0.0006217054374609792 -9.941822201911149e-5 0.0
0.0006167627979304453 -0.00010205563164971257 0.0
0.0005997410923966908 -0.00010124282536619033 0.0
0.0006048987030918167 -9.873259850285692e-5 0.0
0.0008370798910154778 -8.63860144814425e-5 0.0
0.0008773859948385358 -8.139931325411695e-5 0.0
0.000899891451562955 -7.536208288002283e-5 0.0
0.0009050064249066977 -6.907974007130073e-5 0.0
0.0008381032491474272 -5.8676703935134445e-5 0.0
0.0009240854691215736 -6.871148669261801e-5 0.0
0.0009296549189334996 -6.208102465490154e-5 0.0
0.0009497963655720154 -6.138489804145626e-5 0.0
0.0005964191325888112 -0.00010400655714853032 0.0
0.0005786048705942776 -0.00010268644555881497 0.0
0.0006132232859231278 -0.00010510670105675787 0.0
0.0008947538521233172 -8.19265603419357e-5 0.0
0.0005757156342105489 -0.00010550815229589376 0.0
0.0005574933643901487 -0.00010379125572675 0.0
0.0008728754442681739 -5.3069044592291356e-5 0.0
0.0005549185495175512 -0.00010644098119201668 0.0
0.000536374197672656 -0.0001043861991235147 0.0
0.0005340975385865653 -0.00010706653533677188 0.0
0.00051560061754848 -0.00010450778775750472 0.0
0.000517349081056185 -0.00010210984581172168 0.0
0.00049468064328737 -0.00010197223936324815 0.0
0.000496746049411265 -9.953646491371366e-5 0.0
0.0005111442348492384 -0.00010709563051394312 0.0
0.00047191995153115504 -9.894224457399371e-5 0.0
0.0004737302834535633 -9.662215707849962e-5 0.0
0.0005321416288827622 -0.00011015147940083692 0.0
0.0005125876554171876 -0.00011052930186708956 0.0
0.00044920066821306975 -9.544594162346463e-5 0.0
0.0004498343444599482 -9.313350877085553e-5 0.0
0.000956058692267671 -5.4657479796069196e-5 0.0
0.0009774588742990625 -5.378464810543455e-5 0.0
0.0005303561588826558 -0.00011357069921272517 0.0
0.0005112876190912128 -0.00011387720589690354 0.0
0.00098403226661202 -4.689044272108682e-5 0.0
0.0010069111484467073 -4.601408815828134e-5 0.0
0.000999174987873853 -5.391846914214127e-5 0.0
0.0010294889922127398 -4.580161966470032e-5 0.0
0.001022354866740891 -5.4190970587467996e-5 0.0
0.0010535133315294981 -4.553430003795592e-5 0.0
0.0010480496291953134 -5.4097471860780443e-5 0.0
0.0010810141017926916 -4.4605925450469564e-5 0.0
0.0010731455345011872 -5.378910049773536e-5 0.0
0.0010860173431978622 -3.678243527140657e-5 0.0
0.0011069420906359467 -4.4490427791350035e-5 0.0
0.0010977379695998701 -5.415451175657444e-5 0.0
0.0005290256085595428 -0.00011728036740652369 0.0
0.00042355431309343023 -9.13944440107131e-5 0.0
0.000423313484522493 -8.882789930059015e-5 0.0
0.0010662346609016094 -6.409845655382329e-5 0.0
0.0010900767914211243 -6.482464901733586e-5 0.0
0.0011216456411080964 -5.472467363334906e-5 0.0
0.001060601022761652 -7.521438625337641e-5 0.0
0.0005106019061221419 -0.00011755949872832297 0.0
0.0011142751581665361 -6.587025934594728e-5 0.0
0.0011456287763403025 -5.545069548083425e-5 0.0
0.0005278645785360947 -0.00012130757474270965 0.0