# vtk DataFile Version 2.0
phase field modeling fracture
ASCII
DATASET UNSTRUCTURED_GRID
POINTS 2538 float
0.0 0.0 0.0
10.0 0.0 0.0
0.0 10.0 0.0
10.0 10.0 0.0
0.0 4.9995 0.0
0.0 5.0005 0.0
5.0 5.0 0.0
0.9416964895726688 0.0 0.0
1.803581725054446 0.0 0.0
2.592419885431098 0.0 0.0
3.314401822861676 0.0 0.0
3.975193910351406 0.0 0.0
4.579982132660152 0.0 0.0
5.133512780936812 0.0 0.0
5.640130319506143 0.0 0.0
6.103810708661955 0.0 0.0
6.528192895506818 0.0 0.0
6.916607540127679 0.0 0.0
7.272102969376355 0.0 0.0
7.597469242948583 0.0 0.0
7.895259826292669 0.0 0.0
8.167811885738017 0.0 0.0
8.417264413845215 0.0 0.0
8.645575169389538 0.0 0.0
8.854535961159101 0.0 0.0
9.045786767735546 0.0 0.0
9.220828555767493 0.0 0.0
9.38103509633881 0.0 0.0
9.527663687265145 0.0 0.0
9.661865124984566 0.0 0.0
9.784692609918062 0.0 0.0
9.897110148790482 0.0 0.0
10.0 0.09999999999992584 0.0
10.0 0.199999999999856 0.0
10.0 0.2999999999997771 0.0
10.0 0.3999999999996677 0.0
10.0 0.4999999999995511 0.0
10.0 0.5999999999994683 0.0
10.0 0.6999999999993983 0.0
10.0 0.7999999999993286 0.0
10.0 0.8999999999992587 0.0
10.0 0.9999999999991888 0.0
10.0 1.099999999999119 0.0
10.0 1.199999999999033 0.0
10.0 1.299999999998852 0.0
10.0 1.399999999998576 0.0
10.0 1.499999999998284 0.0
10.0 1.599999999997992 0.0
10.0 1.6999999999977 0.0
10.0 1.799999999997408 0.0
10.0 1.899999999997116 0.0
10.0 1.999999999996825 0.0
10.0 2.099999999996533 0.0
10.0 2.199999999996241 0.0
10.0 2.299999999995949 0.0
10.0 2.399999999995657 0.0
10.0 2.499999999995365 0.0
10.0 2.599999999995073 0.0
10.0 2.699999999994782 0.0
10.0 2.79999999999449 0.0
10.0 2.899999999994198 0.0
10.0 2.999999999993906 0.0
10.0 3.099999999993614 0.0
10.0 3.199999999993322 0.0
10.0 3.299999999993029 0.0
10.0 3.399999999992738 0.0
10.0 3.499999999992446 0.0
10.0 3.599999999992154 0.0
10.0 3.699999999991863 0.0
10.0 3.799999999991571 0.0
10.0 3.899999999991278 0.0
10.0 3.999999999991022 0.0
10.0 4.099999999991035 0.0
10.0 4.199999999991187 0.0
10.0 4.299999999991338 0.0
10.0 4.399999999991491 0.0
10.0 4.499999999991642 0.0
10.0 4.599999999991795 0.0
10.0 4.699999999991947 0.0
10.0 4.799999999992099 0.0
10.0 4.89999999999225 0.0
10.0 4.999999999992403 0.0
10.0 5.099999999992555 0.0
10.0 5.199999999992706 0.0
10.0 5.299999999992858 0.0
10.0 5.39999999999301 0.0
10.0 5.499999999993161 0.0
10.0 5.599999999993313 0.0
10.0 5.699999999993466 0.0
10.0 5.799999999993618 0.0
10.0 5.899999999993771 0.0
10.0 5.999999999993922 0.0
10.0 6.099999999994074 0.0
10.0 6.199999999994227 0.0
10.0 6.299999999994378 0.0
10.0 6.39999999999453 0.0
10.0 6.499999999994682 0.0
10.0 6.599999999994833 0.0
10.0 6.699999999994986 0.0
10.0 6.799999999995138 0.0
10.0 6.899999999995289 0.0
10.0 6.999999999995442 0.0
10.0 7.099999999995594 0.0
10.0 7.199999999995747 0.0
10.0 7.299999999995897 0.0
10.0 7.39999999999605 0.0
10.0 7.499999999996202 0.0
10.0 7.599999999996353 0.0
10.0 7.699999999996505 0.0
10.0 7.799999999996658 0.0
10.0 7.899999999996808 0.0
10.0 7.999999999996962 0.0
10.0 8.099999999997113 0.0
10.0 8.199999999997265 0.0
10.0 8.299999999997418 0.0
10.0 8.399999999997569 0.0
10.0 8.499999999997721 0.0
10.0 8.599999999997873 0.0
10.0 8.699999999998024 0.0
10.0 8.799999999998176 0.0
10.0 8.899999999998329 0.0
10.0 8.99999999999848 0.0
10.0 9.099999999998634 0.0
10.0 9.199999999998786 0.0
10.0 9.299999999998937 0.0
10.0 9.399999999999089 0.0
10.0 9.499999999999241 0.0
10.0 9.599999999999392 0.0
10.0 9.699999999999545 0.0
10.0 9.799999999999697 0.0
10.0 9.899999999999848 0.0
9.897110148790565 10.0 0.0
9.784692609918244 10.0 0.0
9.66186512498486 10.0 0.0
9.527663687265571 10.0 0.0
9.381035096339392 10.0 0.0
9.220828555768257 10.0 0.0
9.045786767736512 10.0 0.0
8.854535961160305 10.0 0.0
8.645575169391027 10.0 0.0
8.417264413847017 10.0 0.0
8.167811885740178 10.0 0.0
7.895259826295246 10.0 0.0
7.597469242951631 10.0 0.0
7.272102969379938 10.0 0.0
6.916607540131873 10.0 0.0
6.528192895511704 10.0 0.0
6.103810708667616 10.0 0.0
5.640130319512691 10.0 0.0
5.13351278094435 10.0 0.0
4.579982132668816 10.0 0.0
3.975193910361222 10.0 0.0
3.314401822869852 10.0 0.0
2.592419885437257 10.0 0.0
1.803581725058137 10.0 0.0
0.9416964895740705 10.0 0.0
0.0 9.00010000000243 0.0
0.0 8.000200000005481 0.0
0.0 7.000300000005135 0.0
0.0 6.000400000002569 0.0
0.901790731451151 5.000409820926855 0.0
1.657200899774397 5.000334279910023 0.0
2.289991063707192 5.000271000893629 0.0
2.820065163538221 5.000217993483646 0.0
3.264096435579811 5.000173590356442 0.0
3.636051481595835 5.00013639485184 0.0
3.947629914072366 5.000105237008593 0.0
4.208632181002628 5.0000791367819 0.0
4.427267949625672 5.000057273205037 0.0
4.610414277633563 5.000038958572237 0.0
4.763831845154243 5.000023616815485 0.0
4.892346298799659 5.00001076537012 0.0
4.892346298799748 4.99998923462988 0.0
4.763831845154455 4.999976383184515 0.0
4.610414277633943 4.999961041427763 0.0
4.427267949626277 4.999942726794963 0.0
4.208632181003523 4.9999208632181 0.0
3.94762991407365 4.999894762991407 0.0
3.636051481597624 4.99986360514816 0.0
3.264096435582253 4.999826409643559 0.0
2.820065163541503 4.999782006516354 0.0
2.289991063711534 4.999728999106371 0.0
1.657200899778495 4.999665720089978 0.0
0.9017907314530094 4.999590179073145 0.0
0.0 3.999600000002013 0.0
0.0 2.999700000005187 0.0
0.0 1.99980000000512 0.0
0.0 0.9999000000025537 0.0
9.897889398521345 2.93573355845387 0.0
9.906568249974548 7.060009441434234 0.0
9.913122631074113 3.64016132281653 0.0
9.922462129543863 6.354535290629151 0.0
9.917693659967533 4.354211663134567 0.0
9.909873057440208 5.637584487339942 0.0
9.914183254994697 4.950672966925282 0.0
9.913885043715895 7.666887930262611 0.0
9.91009668007573 2.351889069770817 0.0
9.905135696074536 8.138152454502785 0.0
9.913397459621809 1.849999999997262 0.0
7.099302372137626 0.297750452375005 0.0
7.095143729410097 9.700359990366296 0.0
4.942912558701401 5.095838627899509 0.0
4.315009232304429 5.165022115481685 0.0
4.946182472483878 4.906763777264103 0.0
4.317967462990024 4.825955043772673 0.0
9.916390871492647 8.64999999999792 0.0
9.921504649680616 1.368376469890358 0.0
8.292538149791614 0.206877570318844 0.0
8.292538149793597 9.793122429681448 0.0
5.884594439766573 9.587645267048616 0.0
5.794826292691579 0.3794853783929359 0.0
9.913397459621425 9.049999999998557 0.0
9.908526577714177 0.9568239351922434 0.0
3.456851160380649 5.315740054130451 0.0
3.457889657868442 4.707121019609468 0.0
8.945214200703926 0.1503383337970344 0.0
8.950161364448409 9.8413906539257 0.0
9.913862335499305 4.055887885208452 0.0
9.916697353372683 4.650158482607802 0.0
9.919076340414442 6.049999999994006 0.0
9.906994308667635 5.25749687748192 0.0
9.917490342358025 6.655979201891897 0.0
9.915757520293784 7.343848891656911 0.0
9.910049507471042 3.363474386285078 0.0
9.914471988502868 2.647400064832979 0.0
9.91474124160965 9.337490423485129 0.0
9.916971008170838 0.6499999999994355 0.0
4.307157269264427 9.509674045029644 0.0
4.331527375865619 0.4401616696422582 0.0
9.45434939180249 9.878397030523757 0.0
9.457696120412969 0.1270877537061785 0.0
2.555070293622606 5.422044496190925 0.0
2.566232917480916 4.608001224030952 0.0
3.026511860837692 9.332320638257093 0.0
2.945561971800619 0.5895662714727601 0.0
7.7395404387124 0.2511088946967771 0.0
7.736379255744154 9.745848826372828 0.0
4.687135269408529 5.122111433928926 0.0
4.688420821504113 4.871895064967488 0.0
9.910554884115975 0.3448356354522978 0.0
9.911230082250466 9.65764729394159 0.0
9.921953841410854 6.851023993342036 0.0
9.912065178606017 5.448170483544033 0.0
9.911660025326261 3.861846960030188 0.0
9.914847467973438 3.14501593945607 0.0
9.913397459621425 5.849999999993703 0.0
9.913397459621425 7.849999999996735 0.0
9.906916878988277 2.15455769998631 0.0
9.913397459621425 8.349999999997479 0.0
9.909472363117661 1.640528221515488 0.0
9.913987325695956 1.152857110636247 0.0
9.913397459621425 8.849999999998241 0.0
0.9100099990995943 2.614215977520411 0.0
0.8395284981715456 7.451196254860987 0.0
9.723278867451556 9.898135916635193 0.0
9.723316350887044 0.09841820909386662 0.0
1.385819164827588 4.454539963646463 0.0
1.338343629665047 5.523111536005823 0.0
1.377179700550677 0.6809168304959698 0.0
1.418060461092743 9.285896715136046 0.0
9.91268220142518 0.1457914080939694 0.0
9.906737126737994 9.845745933882352 0.0
0.7108351382691361 6.537941170074089 0.0
1.527735020267026 6.915620208855231 0.0
1.630993885659103 7.838271825205868 0.0
2.232760943566823 7.370850737296832 0.0
2.243414218068206 6.688299277952821 0.0
2.779655053105118 7.021588754814074 0.0
2.80227799359795 7.632420170547022 0.0
3.282022065908813 7.305859666021318 0.0
3.327597298795347 7.857554136825748 0.0
3.743210251018715 7.549183328204379 0.0
3.716353232200752 7.062036086888612 0.0
4.111978858674101 7.27497101169417 0.0
4.104192177581432 6.879858986267289 0.0
4.436230765617037 7.045693351607117 0.0
4.430360014817357 6.703971783962796 0.0
4.732390145036301 6.849841042423394 0.0
5.056161327708878 5.095276573498806 0.0
5.111586796021131 4.999081142133581 0.0
5.169267363407189 5.09444870412406 0.0
5.223795108752053 4.996986220359468 0.0
5.281480803887719 5.092780870372803 0.0
5.335670761900611 4.994887492556936 0.0
5.393485214772442 5.090486192743301 0.0
5.447323082877892 4.992601527033996 0.0
5.505243219343024 5.087953380710069 0.0
5.558739102026105 4.990287787962959 0.0
5.616491581184779 5.085335255235766 0.0
5.669852346908056 4.9879269227514 0.0
5.727502713908907 5.082679981817038 0.0
5.780766004135139 4.988313988715834 0.0
5.838244881129535 5.080480568766611 0.0
5.891357695677371 4.986433849408193 0.0
5.948696036767613 5.077969900389505 0.0
6.001601341641615 4.981313698556656 0.0
6.058851024265095 5.074871552128682 0.0
6.111614020704875 4.978360695880202 0.0
6.168801161530775 5.072044953270978 0.0
6.221368818778567 4.975825765213497 0.0
6.278268309066882 5.066182320461055 0.0
6.330814273567539 4.972837984645718 0.0
6.387565032421376 5.062889771971895 0.0
6.437476667631405 4.971693683589553 0.0
[...]
POINT_DATA 2538
VECTORS disp float
1.3787751159710104e-11 2.974584864317043e-11 0.0
2.1811489071553676e-11 -5.539537685043512e-11 0.0
0.0026999999962687405 1.1050309075699312e-11 0.0
0.002699999971908428 -7.394518800260831e-11 0.0
0.000989114073305696 0.00039734539023034913 0.0
0.0019900771714643417 9.602966294725319e-5 0.0
0.0013563638609618476 4.664699701543239e-5 0.0
1.4556710534319091e-12 -1.5296159025613926e-12 0.0
4.597232912090952e-12 3.999163746784712e-12 0.0
3.622066330788235e-12 1.232883170273698e-12 0.0
3.2073434125437625e-12 1.19032509605929e-12 0.0
2.5232791576651956e-12 6.943244752695084e-13 0.0
2.2396341795256495e-12 1.769890667722403e-13 0.0
1.9000428121981644e-12 -1.66911240421537e-13 0.0
1.6672366271434907e-12 -6.928802438487182e-13 0.0
1.2915786059565171e-12 -1.2740794012117756e-12 0.0
1.514746123114279e-12 -1.9578386889121085e-12 0.0
1.4849639328531903e-12 -2.73796598438252e-12 0.0
1.624425705945166e-12 -3.576377609498321e-12 0.0
1.8154981686627987e-12 -4.4140113321195254e-12 0.0
1.883878381140398e-12 -5.079692734777713e-12 0.0
2.1813443441287437e-12 -5.949032117596395e-12 0.0
2.2365998152731572e-12 -6.503834594988576e-12 0.0
2.427800864155649e-12 -7.29402526483841e-12 0.0
2.6258069060383207e-12 -8.062633368140577e-12 0.0
2.738463968334785e-12 -8.784192830640454e-12 0.0
2.958210759739843e-12 -9.68539563616365e-12 0.0
3.253318397946421e-12 -1.0698055017926435e-11 0.0
3.688484316591677e-12 -1.202795093886608e-11 0.0
3.727990340281137e-12 -1.3421796379913916e-11 0.0
5.542514700052365e-12 -1.756220606707446e-11 0.0
2.4520333718579616e-12 -1.4259573313835233e-11 0.0
3.669194632940512e-5 -3.8089199758782724e-5 0.0
6.41289142538846e-5 -6.452632584696658e-5 0.0
9.051999203212788e-5 -8.748249059792759e-5 0.0
0.00011539342543198322 -0.00010821132118314047 0.0
0.00013917511506393856 -0.00012744274015481303 0.0
0.00016234857828800758 -0.00014579888880926687 0.0
0.0001853248262660687 -0.0001632550686712827 0.0
0.00020787566790717978 -0.0001800128694453042 0.0
0.00023024221635556608 -0.0001962525452813639 0.0
0.00025251436517103183 -0.0002119332834811186 0.0
0.0002746858718050252 -0.00022722914913033643 0.0
0.00029698227540834446 -0.0002421020553957871 0.0
0.00031924804950223033 -0.0002565557158187557 0.0
0.00034158029342539045 -0.0002707306181748741 0.0
0.00036412165676389096 -0.0002845364821414719 0.0
0.00038665768185766 -0.00029797727642277984 0.0
0.0004093634744740652 -0.00031115490672895614 0.0
0.0004322564784799537 -0.00032396330445589005 0.0
0.0004553013809834109 -0.000336499455433054 0.0
0.00047852430201031457 -0.00034875764156504804 0.0
0.0005019465681691032 -0.00036073240613237393 0.0
0.0005255394130399399 -0.00037242016535318193 0.0
0.0005494509855076558 -0.00038386041391230664 0.0
0.0005734320320935787 -0.00039500635873664883 0.0
0.0005977951419427705 -0.0004058927013448603 0.0
0.000622206643105823 -0.0004164767454417084 0.0
0.000646909693129136 -0.0004268143946373202 0.0
0.0006717918050276651 -0.00043683516139778137 0.0
0.0006970085628825103 -0.0004466144707986747 0.0
0.0007222709825833338 -0.0004561249051982586 0.0
0.0007478967695163064 -0.00046537911784196864 0.0
0.0007737028546950541 -0.00047432788042701203 0.0
0.0007997813313260139 -0.00048305083172078865 0.0
0.0008260283493788784 -0.0004914954682382282 0.0
0.000852579655388856 -0.0004997183338503263 0.0
0.0008791719287219715 -0.0005076207981176253 0.0
0.0009060845924575232 -0.0005152417288833459 0.0
0.0009330598645574961 -0.0005224469805718223 0.0
0.0009601890939066833 -0.0005292523806719005 0.0
0.0009875097600083199 -0.0005358084043525497 0.0
0.0010149068851011227 -0.0005419229712185774 0.0
0.0010426107000293995 -0.0005477495132516913 0.0
0.0010705349889105285 -0.0005531943279548433 0.0
0.0010986222904558723 -0.0005583812700758476 0.0
0.0011269543350635066 -0.0005631492971665328 0.0
0.0011553190853884631 -0.0005676273025082849 0.0
0.0011839536370475488 -0.0005717951718598379 0.0
0.0012126623558841173 -0.0005756140262711003 0.0
0.001241520292226933 -0.0005791999365002003 0.0
0.001270553907013847 -0.0005824273852056435 0.0
0.0012994634465589641 -0.000585230608198359 0.0
0.001328631967001092 -0.0005878049831887625 0.0
0.001357471212140198 -0.0005899290784765034 0.0
0.0013867349200605633 -0.0005917326633745294 0.0
0.001415529480342319 -0.0005930992511960438 0.0
0.0014449205800691242 -0.000594152555980486 0.0
0.0014737980355901813 -0.000594864896770956 0.0
0.0015024017690744547 -0.0005950596643425149 0.0
0.0015306417377992166 -0.0005949695886741898 0.0
0.0015578569603861094 -0.0005939313879496604 0.0
0.001584401734002122 -0.0005923419936730736 0.0
0.0016109947637385222 -0.0005901715511961401 0.0
0.0016382213502650529 -0.0005877381038637506 0.0
0.0016650860030932942 -0.000584552845134731 0.0
0.0016920586599335444 -0.0005812749252986744 0.0
0.0017200875317690408 -0.0005779086889983133 0.0
0.001746688928995852 -0.0005736515198289481 0.0
0.0017729753331621912 -0.000568681845866245 0.0
0.0017996529953752825 -0.0005625607503514408 0.0
0.001826730009855958 -0.0005558000962567007 0.0
0.0018528328701913226 -0.0005482048490714777 0.0
0.0018802455130111089 -0.0005395462749291309 0.0
0.0019068053411133642 -0.0005304847726442522 0.0
0.0019334814904935916 -0.0005209007590036387 0.0
0.0019608950033792706 -0.0005104386049367867 0.0
0.001987762369509506 -0.0004994390910778204 0.0
0.002014867835206853 -0.0004877129439331632 0.0
0.0020418130081956832 -0.0004754252450375015 0.0
0.0020691656616406546 -0.0004625726490900409 0.0
0.0020966498194160514 -0.0004490617398036688 0.0
0.002124231537925576 -0.0004350763452980961 0.0
0.002151623983478651 -0.00042052942611907356 0.0
0.0021791022920389057 -0.00040545497454673267 0.0
0.0022067731856470706 -0.00038973765049713454 0.0
0.0022343812594265073 -0.0003734978956681983 0.0
0.002262115116878829 -0.0003568087843760333 0.0
0.0022902094598585493 -0.00033944572985693353 0.0
0.002318332712846282 -0.0003214737403435324 0.0
0.0023464868023601745 -0.00030294461869114625 0.0
0.002374999953379041 -0.0002837006534519598 0.0
0.0024039098507967335 -0.0002636030275139424 0.0
0.002433012755453876 -0.00024265646623383783 0.0
0.002462354007967238 -0.0002208646607177007 0.0
0.0024921797723370096 -0.00019794776132707332 0.0
0.002522898992915003 -0.00017358923547906236 0.0
0.0025541209596042095 -0.0001476030330390859 0.0
0.002586190254485626 -0.00011938560720584788 0.0
0.002620435588911929 -8.770473235994504e-5 0.0
0.0026558930351020826 -5.103654190090574e-5 0.0
0.0026999999965288336 -1.6026852488713716e-11 0.0
0.0026999999926975654 -1.8294161720677858e-11 0.0
0.002699999995874646 -9.869477203160241e-12 0.0
0.0026999999957082145 -8.46024912850831e-12 0.0
0.0026999999961752714 -6.496397241802945e-12 0.0
0.002699999996284743 -5.225437540535058e-12 0.0
0.002699999996328654 -4.3383975745369634e-12 0.0
0.0026999999964652283 -3.602272878668945e-12 0.0
0.002699999996487135 -2.9429057508811606e-12 0.0
0.00269999999661125 -2.3748046115798898e-12 0.0
0.0026999999967249086 -1.9417059048675103e-12 0.0
0.00269999999684286 -1.3988726071340167e-12 0.0
0.0026999999969283804 -9.975130750945422e-13 0.0
0.0026999999970418738 -4.911964784961172e-13 0.0
0.002699999997113334 9.100154596211496e-15 0.0
0.00269999999715679 5.953602526771789e-13 0.0
0.002699999997214378 1.2065750900550081e-12 0.0
0.0026999999970008072 1.9558536948343573e-12 0.0
0.002699999997272189 2.558267461648137e-12 0.0
0.0026999999968891414 3.3593001062678287e-12 0.0
0.0026999999969728795 3.890852937423567e-12 0.0
0.0026999999968899202 4.377409137107943e-12 0.0
0.0026999999970222406 4.432310415417262e-12 0.0
0.0026999999973888796 5.2390923737939955e-12 0.0
0.0026999999986042763 2.660691417292539e-12 0.0
0.002504689113708622 8.673738029886403e-5 0.0
0.0023387182985459844 0.0001255098632727313 0.0
0.0021925608663041175 0.00012678883627828858 0.0
0.0020716801190929696 0.00010936042679814818 0.0
0.0019855644456516345 1.3540684035536698e-5 0.0
0.001973508895774755 -2.8889115909619746e-5 0.0
0.0019477912929770338 -5.9111552079660176e-5 0.0
0.0019093540585930796 -6.508586875842695e-5 0.0
0.001860257846254931 -5.4592020657309436e-5 0.0
0.0018081631361494392 -3.9006496643090706e-5 0.0
0.0017545292658609304 -2.2242766878268714e-5 0.0
0.0017004725311369328 -4.6483998557309744e-6 0.0
0.001645049851562533 1.0855102738737057e-5 0.0
0.0015879581462491452 2.3727520742770812e-5 0.0
0.0015260813451039952 3.418521074348108e-5 0.0
0.0014535179173996574 4.229526217176356e-5 0.0
0.001280379429178773 8.667882962642496e-5 0.0
0.0012262051246378879 0.00010467797438405276 0.0
0.001181197433218223 0.0001165709816584736 0.0
0.0011417349240800947 0.00012656953630639238 0.0
0.001105747071972312 0.0001359151496007584 0.0
0.0010731716930574716 0.00014537094173475406 0.0
0.001043736831551512 0.00015589519584553445 0.0
0.0010185627141238054 0.00016798910435415323 0.0
0.0009990935633814458 0.00018576715979023463 0.0
0.00098510786191151 0.00020706324290398355 0.0
0.0009860701440682137 0.0002511869617684658 0.0
0.0009849153279853733 0.0003076488177731962 0.0
0.0008912786913255878 0.00041089872979194913 0.0
0.0007535209097158681 0.0004055207529907403 0.0
0.0005434218317037314 0.00033731235262943703 0.0
0.00029319652368930315 0.00021894378098335373 0.0
0.0007006471516522691 -0.00042924049848093215 0.0
0.001847130018392349 -0.0005158619126294865 0.0
0.0008861295412455032 -0.0004917331239479635 0.0
0.0016551912193633477 -0.0005628152943396243 0.0
0.001083162452574797 -0.0005371702525341818 0.0
0.0014555171308762778 -0.0005710008741249679 0.0
0.0012545976299402726 -0.0005602781105890482 0.0
0.0020122175965093104 -0.00045966369014329995 0.0
0.0005566038107867929 -0.0003721142601420832 0.0
0.002142859320714726 -0.0003955973356641512 0.0
0.0004382967936856604 -0.00031393952462162344 0.0
4.2919470787261064e-5 -8.400540325425906e-6 0.0
0.002649314229683255 -3.885188296525384e-6 0.0
0.00145860861545264 6.266371479090796e-5 0.0
0.001666924167634029 2.1701222512292345e-5 0.0
0.0012523676427982095 8.34077474604477e-5 0.0
0.0011026539358866732 0.0001422819917120537 0.0
0.0022841664342850765 -0.00031933403389471196 0.0
0.0003291389272820639 -0.000251813229921263 0.0
3.310578983289493e-5 -1.2711014766762382e-5 0.0
0.0026632669328388306 -7.088506226320243e-6 0.0
0.002629579536456903 3.395872620464973e-6 0.0
5.529787350934023e-5 8.125523196254497e-7 0.0
0.0023984044979527505 -0.00024462076892084494 0.0
0.00023627909650854442 -0.00018848060823236523 0.0
0.0018170638757272338 -2.0195586485128104e-5 0.0
0.0010005902744727338 0.00017167182206651298 0.0
2.6100386998034805e-5 -1.2605600335528195e-5 0.0
0.0026710353174991116 -8.433733338626466e-6 0.0
0.0009997576895327473 -0.0005198903498537257 0.0
0.001167562530922043 -0.0005502967280749844 0.0
0.001572532884568729 -0.0005714306960924958 0.0
0.0013441397135505733 -0.0005660674486922178 0.0
0.001737693671955866 -0.0005469041499373177 0.0
0.0019235140294244191 -0.0004945798852273317 0.0
0.0008121253380629013 -0.0004694097903276854 0.0
0.0006291186498368738 -0.00040432190826294496 0.0
0.0024828752456772145 -0.00018422897510303408 0.0
0.00016746390985727228 -0.0001389631502125398 0.0
0.0026108530377009238 1.4800582773183729e-5 0.0
7.474087799397802e-5 9.18855129849632e-6 0.0
0.0026764272803198696 -1.1140059820439658e-5 0.0
2.4923586566363903e-5 -1.4642563847542444e-5 0.0
0.0019199989554626409 -3.930545659857464e-5 0.0
0.0009514878096652275 0.00020053845945797977 0.0
0.0025744295147000005 2.47807018052608e-5 0.0
0.00011281908592980578 1.87450608818817e-5 0.0
3.818639144655023e-5 -1.155824330708251e-5 0.0
0.0026559386244359826 -6.133525522017905e-6 0.0
0.0015623201470847223 4.6557394571241364e-5 0.0
0.0011775755074611217 0.00012130558439885238 0.0
9.422718045253976e-5 -7.936685528876668e-5 0.0
0.0025835303583277404 -0.00010335694734108387 0.0
0.0017900213209205442 -0.0005366011387042182 0.0
0.001400017406617731 -0.0005701577381842233 0.0
0.0009463939006804056 -0.0005070703318314872 0.0
0.0007552393737590929 -0.00045175272460777437 0.0
0.0015167753301971317 -0.0005720042057236761 0.0
0.002062265627952132 -0.0004373045118728234 0.0
0.000509184445649149 -0.0003492420695931374 0.0
0.0022007897695137594 -0.00036705977833151424 0.0
0.0003899031484637813 -0.00028650899519486303 0.0
0.000280406563423905 -0.00021938458424839712 0.0
0.0023409764959547528 -0.0002829047894252288 0.0
0.0006309186933613303 0.0002114451052502674 0.0
0.0022418066109852353 6.430229016923239e-5 0.0
0.0026762524708930937 -1.6071539012650952e-5 0.0
2.1787547241036747e-5 -1.4931847511534239e-5 0.0
0.0009356792861154256 0.0002700195173471362 0.0
0.0019998754933880586 -8.953662582953588e-7 0.0
0.00013792463882373603 3.0644105628024915e-5 0.0
0.002574997491097369 2.489555186847543e-5 0.0
4.166244149751468e-5 -3.486861592607348e-5 0.0
0.0026487381071456494 -4.5801618769894864e-5 0.0
0.0021165750996399316 5.3583401036209095e-5 0.0
0.002136685392922863 4.347553156854053e-5 0.0
0.002298636394258198 4.981675985149157e-5 0.0
0.0021950811925367936 5.1903713639639435e-5 0.0
0.002067920950437876 3.578749558008843e-5 0.0
0.002104997472737551 5.7115126676335774e-5 0.0
0.0022300999558376895 6.21629413357019e-5 0.0
0.00214706029369343 7.071458136980767e-5 0.0
0.002267943940716153 6.621184868777963e-5 0.0
0.0021926854596367165 7.343026939703675e-5 0.0
0.0020796604133720997 7.79159164723418e-5 0.0
0.0021229993454983985 7.74549494769053e-5 0.0
0.002026253591555971 8.229129347482128e-5 0.0
0.002062731863824928 7.810371985420388e-5 0.0
0.0019760149556987284 8.357839260811594e-5 0.0
0.002009678262835148 7.547787555965144e-5 0.0
0.001425379120077981 3.6007817821566926e-5 0.0
0.0013467923666687 2.2411220733180323e-5 0.0
0.0014033201113535 1.7783331840823214e-5 0.0
0.001339104645540282 7.351564399298943e-6 0.0
0.0013890208867349528 3.371823971331169e-6 0.0
0.001333624957182424 -4.588265711801557e-6 0.0
0.0013788054264608257 -8.010048753874831e-6 0.0
0.0013286052979062648 -1.4900406168530246e-5 0.0
0.001370753796018229 -1.784824779844066e-5 0.0
0.0013241027729072865 -2.415819976406347e-5 0.0
0.0013641703338903527 -2.6656177312160865e-5 0.0
0.0013200650329739856 -3.26948100815717e-5 0.0
0.0013586143637188972 -3.52270040364459e-5 0.0
0.001317499368810353 -4.094562050008338e-5 0.0
0.0013538461959724823 -4.34528956375313e-5 0.0
0.0013141108935704037 -4.909055465017809e-5 0.0
0.0013493924619506316 -5.1517824034163084e-5 0.0
0.001309649775424978 -5.7179851548273744e-5 0.0
0.0013450923596968973 -5.962870287212955e-5 0.0
0.0013062777727262623 -6.521447822798677e-5 0.0
0.0013412394175388738 -6.781422882422506e-5 0.0
0.001303178047644892 -7.334067507614273e-5 0.0
0.0013364478715688643 -7.605840224453297e-5 0.0
0.0012999304603441757 -8.160308756411404e-5 0.0
0.0013327480628857748 -8.441166725496134e-5 0.0
0.0012974555416315424 -8.977093007662436e-5 0.0
0.001329323422565582 -9.291494882700599e-5 0.0
0.0012928424190303371 -9.785835212997482e-5 0.0
0.0013255618113371347 -0.00010157811637692801 0.0
0.0012814720166489544 -0.00010696790518430787 0.0
0.0013241253964870665 -0.00011051756195414396 0.0
0.0012865984848369066 -0.00011619178961091933 0.0
0.001320613950763723 -0.00011965713806751694 0.0
0.0012849512757337122 -0.00012547531636660108 0.0
0.0013176856732279038 -0.00012908889749374235 0.0
0.0012843347557229083 -0.00013486320710860673 0.0
0.0013146530557331224 -0.00013872605291649647 0.0
0.0012820922913666189 -0.00014470561180577593 0.0
0.001284452646001689 -1.9647766645101864e-5 0.0
0.0013116127608370641 -0.00014866736502592957 0.0
0.0012707093198093922 -6.208027010223768e-5 0.0
0.001247303882926547 -0.0001152802349780774 0.0
0.0012773292261970275 -0.0001547638056291086 0.0
0.0013083496845669351 -0.00015889401151194922 0.0
0.0012726064531127532 -0.0001654579184572043 0.0
0.0012422895803631934 -0.00016029883889024076 0.0
0.001236681221127903 -0.0001714671975200303 0.0
0.0013037240215634006 -0.0001700645652499452 0.0
0.0013400008171530803 -0.0001630608856060007 0.0
0.001354949513697709 -0.00011350147094126592 0.0
0.00133557688420309 -0.0001746026682446628 0.0
0.0013742214312662978 -0.00016638298641837948 0.0
0.001368448989633929 -0.00017909751438264658 0.0
0.0012067451805663609 -0.0001659707285149519 0.0
0.001202496421972802 -0.0001768059182658132 0.0
0.0014083874150380088 -0.0001701779048962242 0.0
0.0011706448132773062 -0.00017096690216909596 0.0
0.0011684093517101723 -0.00018219808286648985 0.0
0.0014032622963424202 -0.00018308982590286267 0.0
0.0014419456464748758 -0.00017476148826757872 0.0
0.0011343613586608755 -0.00017590106722058065 0.0
0.0011313347003127335 -0.00018738200167631408 0.0
0.0014376628599518742 -0.00018762771254252777 0.0
0.001477519582315791 -0.00017879422796688533 0.0
0.0010983110321896373 -0.00018065782022077157 0.0
0.0010949677632325519 -0.00019272038974411275 0.0
0.0014730374356071762 -0.00019237868843773322 0.0
0.0015141008234483165 -0.00018271299612865967 0.0
0.0010626886148406823 -0.00018462821672402777 0.0
0.0010570753597700534 -0.00019697741065485434 0.0
0.0015100346712562853 -0.00019667211633934113 0.0
0.0015514447643897686 -0.0001864728940670463 0.0
0.0010236760073232994 -0.00018845657229727883 0.0
0.0010190489710690093 -0.00020135032689402708 0.0
0.0009835945705002661 -0.0001928283139551786 0.0
0.000988229966045007 -0.0001792700624170127 0.0
0.0014653648983783162 -0.00020587412353554224 0.0
0.0015470933242924532 -0.00020104716927257988 0.0
0.0015894531317581155 -0.00019013803598675488 0.0
0.0015945383921845244 -0.00017511240293318066 0.0
0.00137211321585062 -7.077689731424053e-5 0.0
0.0016342162652197437 -0.00017841918559625405 0.0
0.001639705623301795 -0.00016278889154509583 0.0
0.001680802513569689 -0.00016552423952589728 0.0
0.000982090145953233 -0.00020659949269827445 0.0
0.0009451257085618531 -0.00019650541740627591 0.0
0.0010169597957375236 -0.00021516997586171587 0.0
0.0015837898825751707 -0.00020557452967835704 0.0
0.0009442159393516021 -0.00021052812915626557 0.0
0.0009068215288149639 -0.0001995542598641294 0.0
0.0013957732848230984 -3.675237210424585e-5 0.0
0.0009059929119126547 -0.00021315884028439176 0.0
0.0008686114096764943 -0.00020189023012160862 0.0
0.0008680615812065707 -0.0002157101050870199 0.0
0.0008312127794124703 -0.00020332307162598665 0.0
0.0008309709657598958 -0.0001899133570798519 0.0
0.0007912463844444659 -0.00019155807028406192 0.0
0.000791658001535422 -0.0001774355648800093 0.0
0.0008263757698393015 -0.00021678755462579058 0.0
0.0007489247280791048 -0.0001790110840245531 0.0
0.0007490403741399876 -0.00016457896788214864 0.0
0.0008680174748633633 -0.00023030575992479 0.0
0.0008326377536177483 -0.00023253102132853487 0.0
0.0007072877367521403 -0.00016488066150632878 0.0
0.0007058959549707787 -0.00015071134713714012 0.0
0.0016874552415958393 -0.00014964886958458235 0.0
0.001730305075855352 -0.00015209588345154137 0.0
0.0008680907265876201 -0.0002450987691779796 0.0
0.0008333131003995051 -0.0002471340582518705 0.0
0.001737466751396095 -0.00013569784432110603 0.0
0.0017824373169076876 -0.00013819224480512976 0.0
0.0017731304997938065 -0.00015627467686041635 0.0
0.0018257289229462908 -0.00014140396879253075 0.0
0.0018171095488063497 -0.0001599026283841533 0.0
0.001869879198118739 -0.00014364255989475917 0.0
0.0018637217878689127 -0.0001619489445337576 0.0
0.0019183852848027754 -0.00014378218314493115 0.0
0.0019076950703866707 -0.00016268261025746637 0.0
0.0019243368819064654 -0.0001262899771896414 0.0
0.0019629891550027663 -0.0001447863485801342 0.0
0.0019494631171370048 -0.00016377858484331348 0.0
0.0008687604035892405 -0.000260196596403684 0.0
0.0006618259886940185 -0.00015042874400073372 0.0
0.0006594807304784424 -0.00013586346918157508 0.0
0.0018984505127827532 -0.00018221149378241775 0.0
0.0019384474895499586 -0.00018312838755389917 0.0
0.0019885628813261255 -0.0001643902183197287 0.0
0.001890836033546669 -0.00020223031695710273 0.0
0.0008349423665128565 -0.00026224487385755876 0.0
0.0019774613452370297 -0.00018355182431220203 0.0
0.00202646540296118 -0.00016426956866862796 0.0
0.0008695240596985076 -0.0002757422506948589 0.0