# vtk DataFile Version 2.0
phase field modeling fracture
ASCII
DATASET UNSTRUCTURED_GRID
POINTS 2538 float
0.0 0.0 0.0
10.0 0.0 0.0
0.0 10.0 0.0
10.0 10.0 0.0
0.0 4.9995 0.0
0.0 5.0005 0.0
5.0 5.0 0.0
0.9416964895726688 0.0 0.0
1.803581725054446 0.0 0.0
2.592419885431098 0.0 0.0
3.314401822861676 0.0 0.0
3.975193910351406 0.0 0.0
4.579982132660152 0.0 0.0
5.133512780936812 0.0 0.0
5.640130319506143 0.0 0.0
6.103810708661955 0.0 0.0
6.528192895506818 0.0 0.0
6.916607540127679 0.0 0.0
7.272102969376355 0.0 0.0
7.597469242948583 0.0 0.0
7.895259826292669 0.0 0.0
8.167811885738017 0.0 0.0
8.417264413845215 0.0 0.0
8.645575169389538 0.0 0.0
8.854535961159101 0.0 0.0
9.045786767735546 0.0 0.0
9.220828555767493 0.0 0.0
9.38103509633881 0.0 0.0
9.527663687265145 0.0 0.0
9.661865124984566 0.0 0.0
9.784692609918062 0.0 0.0
9.897110148790482 0.0 0.0
10.0 0.09999999999992584 0.0
10.0 0.199999999999856 0.0
10.0 0.2999999999997771 0.0
10.0 0.3999999999996677 0.0
10.0 0.4999999999995511 0.0
10.0 0.5999999999994683 0.0
10.0 0.6999999999993983 0.0
10.0 0.7999999999993286 0.0
10.0 0.8999999999992587 0.0
10.0 0.9999999999991888 0.0
10.0 1.099999999999119 0.0
10.0 1.199999999999033 0.0
10.0 1.299999999998852 0.0
10.0 1.399999999998576 0.0
10.0 1.499999999998284 0.0
10.0 1.599999999997992 0.0
10.0 1.6999999999977 0.0
10.0 1.799999999997408 0.0
10.0 1.899999999997116 0.0
10.0 1.999999999996825 0.0
10.0 2.099999999996533 0.0
10.0 2.199999999996241 0.0
10.0 2.299999999995949 0.0
10.0 2.399999999995657 0.0
10.0 2.499999999995365 0.0
10.0 2.599999999995073 0.0
10.0 2.699999999994782 0.0
10.0 2.79999999999449 0.0
10.0 2.899999999994198 0.0
10.0 2.999999999993906 0.0
10.0 3.099999999993614 0.0
10.0 3.199999999993322 0.0
10.0 3.299999999993029 0.0
10.0 3.399999999992738 0.0
10.0 3.499999999992446 0.0
10.0 3.599999999992154 0.0
10.0 3.699999999991863 0.0
10.0 3.799999999991571 0.0
10.0 3.899999999991278 0.0
10.0 3.999999999991022 0.0
10.0 4.099999999991035 0.0
10.0 4.199999999991187 0.0
10.0 4.299999999991338 0.0
10.0 4.399999999991491 0.0
10.0 4.499999999991642 0.0
10.0 4.599999999991795 0.0
10.0 4.699999999991947 0.0
10.0 4.799999999992099 0.0
10.0 4.89999999999225 0.0
10.0 4.999999999992403 0.0
10.0 5.099999999992555 0.0
10.0 5.199999999992706 0.0
10.0 5.299999999992858 0.0
10.0 5.39999999999301 0.0
10.0 5.499999999993161 0.0
10.0 5.599999999993313 0.0
10.0 5.699999999993466 0.0
10.0 5.799999999993618 0.0
10.0 5.899999999993771 0.0
10.0 5.999999999993922 0.0
10.0 6.099999999994074 0.0
10.0 6.199999999994227 0.0
10.0 6.299999999994378 0.0
10.0 6.39999999999453 0.0
10.0 6.499999999994682 0.0
10.0 6.599999999994833 0.0
10.0 6.699999999994986 0.0
10.0 6.799999999995138 0.0
10.0 6.899999999995289 0.0
10.0 6.999999999995442 0.0
10.0 7.099999999995594 0.0
10.0 7.199999999995747 0.0
10.0 7.299999999995897 0.0
10.0 7.39999999999605 0.0
10.0 7.499999999996202 0.0
10.0 7.599999999996353 0.0
10.0 7.699999999996505 0.0
10.0 7.799999999996658 0.0
10.0 7.899999999996808 0.0
10.0 7.999999999996962 0.0
10.0 8.099999999997113 0.0
10.0 8.199999999997265 0.0
10.0 8.299999999997418 0.0
10.0 8.399999999997569 0.0
10.0 8.499999999997721 0.0
10.0 8.599999999997873 0.0
10.0 8.699999999998024 0.0
10.0 8.799999999998176 0.0
10.0 8.899999999998329 0.0
10.0 8.99999999999848 0.0
10.0 9.099999999998634 0.0
10.0 9.199999999998786 0.0
10.0 9.299999999998937 0.0
10.0 9.399999999999089 0.0
10.0 9.499999999999241 0.0
10.0 9.599999999999392 0.0
10.0 9.699999999999545 0.0
10.0 9.799999999999697 0.0
10.0 9.899999999999848 0.0
9.897110148790565 10.0 0.0
9.784692609918244 10.0 0.0
9.66186512498486 10.0 0.0
9.527663687265571 10.0 0.0
9.381035096339392 10.0 0.0
9.220828555768257 10.0 0.0
9.045786767736512 10.0 0.0
8.854535961160305 10.0 0.0
8.645575169391027 10.0 0.0
8.417264413847017 10.0 0.0
8.167811885740178 10.0 0.0
7.895259826295246 10.0 0.0
7.597469242951631 10.0 0.0
7.272102969379938 10.0 0.0
6.916607540131873 10.0 0.0
6.528192895511704 10.0 0.0
6.103810708667616 10.0 0.0
5.640130319512691 10.0 0.0
5.13351278094435 10.0 0.0
4.579982132668816 10.0 0.0
3.975193910361222 10.0 0.0
3.314401822869852 10.0 0.0
2.592419885437257 10.0 0.0
1.803581725058137 10.0 0.0
0.9416964895740705 10.0 0.0
0.0 9.00010000000243 0.0
0.0 8.000200000005481 0.0
0.0 7.000300000005135 0.0
0.0 6.000400000002569 0.0
0.901790731451151 5.000409820926855 0.0
1.657200899774397 5.000334279910023 0.0
2.289991063707192 5.000271000893629 0.0
2.820065163538221 5.000217993483646 0.0
3.264096435579811 5.000173590356442 0.0
3.636051481595835 5.00013639485184 0.0
3.947629914072366 5.000105237008593 0.0
4.208632181002628 5.0000791367819 0.0
4.427267949625672 5.000057273205037 0.0
4.610414277633563 5.000038958572237 0.0
4.763831845154243 5.000023616815485 0.0
4.892346298799659 5.00001076537012 0.0
4.892346298799748 4.99998923462988 0.0
4.763831845154455 4.999976383184515 0.0
4.610414277633943 4.999961041427763 0.0
4.427267949626277 4.999942726794963 0.0
4.208632181003523 4.9999208632181 0.0
3.94762991407365 4.999894762991407 0.0
3.636051481597624 4.99986360514816 0.0
3.264096435582253 4.999826409643559 0.0
2.820065163541503 4.999782006516354 0.0
2.289991063711534 4.999728999106371 0.0
1.657200899778495 4.999665720089978 0.0
0.9017907314530094 4.999590179073145 0.0
0.0 3.999600000002013 0.0
0.0 2.999700000005187 0.0
0.0 1.99980000000512 0.0
0.0 0.9999000000025537 0.0
9.897889398521345 2.93573355845387 0.0
9.906568249974548 7.060009441434234 0.0
9.913122631074113 3.64016132281653 0.0
9.922462129543863 6.354535290629151 0.0
9.917693659967533 4.354211663134567 0.0
9.909873057440208 5.637584487339942 0.0
9.914183254994697 4.950672966925282 0.0
9.913885043715895 7.666887930262611 0.0
9.91009668007573 2.351889069770817 0.0
9.905135696074536 8.138152454502785 0.0
9.913397459621809 1.849999999997262 0.0
7.099302372137626 0.297750452375005 0.0
7.095143729410097 9.700359990366296 0.0
4.942912558701401 5.095838627899509 0.0
4.315009232304429 5.165022115481685 0.0
4.946182472483878 4.906763777264103 0.0
4.317967462990024 4.825955043772673 0.0
9.916390871492647 8.64999999999792 0.0
9.921504649680616 1.368376469890358 0.0
8.292538149791614 0.206877570318844 0.0
8.292538149793597 9.793122429681448 0.0
5.884594439766573 9.587645267048616 0.0
5.794826292691579 0.3794853783929359 0.0
9.913397459621425 9.049999999998557 0.0
9.908526577714177 0.9568239351922434 0.0
3.456851160380649 5.315740054130451 0.0
3.457889657868442 4.707121019609468 0.0
8.945214200703926 0.1503383337970344 0.0
8.950161364448409 9.8413906539257 0.0
9.913862335499305 4.055887885208452 0.0
9.916697353372683 4.650158482607802 0.0
9.919076340414442 6.049999999994006 0.0
9.906994308667635 5.25749687748192 0.0
9.917490342358025 6.655979201891897 0.0
9.915757520293784 7.343848891656911 0.0
9.910049507471042 3.363474386285078 0.0
9.914471988502868 2.647400064832979 0.0
9.91474124160965 9.337490423485129 0.0
9.916971008170838 0.6499999999994355 0.0
4.307157269264427 9.509674045029644 0.0
4.331527375865619 0.4401616696422582 0.0
9.45434939180249 9.878397030523757 0.0
9.457696120412969 0.1270877537061785 0.0
2.555070293622606 5.422044496190925 0.0
2.566232917480916 4.608001224030952 0.0
3.026511860837692 9.332320638257093 0.0
2.945561971800619 0.5895662714727601 0.0
7.7395404387124 0.2511088946967771 0.0
7.736379255744154 9.745848826372828 0.0
4.687135269408529 5.122111433928926 0.0
4.688420821504113 4.871895064967488 0.0
9.910554884115975 0.3448356354522978 0.0
9.911230082250466 9.65764729394159 0.0
9.921953841410854 6.851023993342036 0.0
9.912065178606017 5.448170483544033 0.0
9.911660025326261 3.861846960030188 0.0
9.914847467973438 3.14501593945607 0.0
9.913397459621425 5.849999999993703 0.0
9.913397459621425 7.849999999996735 0.0
9.906916878988277 2.15455769998631 0.0
9.913397459621425 8.349999999997479 0.0
9.909472363117661 1.640528221515488 0.0
9.913987325695956 1.152857110636247 0.0
9.913397459621425 8.849999999998241 0.0
0.9100099990995943 2.614215977520411 0.0
0.8395284981715456 7.451196254860987 0.0
9.723278867451556 9.898135916635193 0.0
9.723316350887044 0.09841820909386662 0.0
1.385819164827588 4.454539963646463 0.0
1.338343629665047 5.523111536005823 0.0
1.377179700550677 0.6809168304959698 0.0
1.418060461092743 9.285896715136046 0.0
9.91268220142518 0.1457914080939694 0.0
9.906737126737994 9.845745933882352 0.0
0.7108351382691361 6.537941170074089 0.0
1.527735020267026 6.915620208855231 0.0
1.630993885659103 7.838271825205868 0.0
2.232760943566823 7.370850737296832 0.0
2.243414218068206 6.688299277952821 0.0
2.779655053105118 7.021588754814074 0.0
2.80227799359795 7.632420170547022 0.0
3.282022065908813 7.305859666021318 0.0
3.327597298795347 7.857554136825748 0.0
3.743210251018715 7.549183328204379 0.0
3.716353232200752 7.062036086888612 0.0
4.111978858674101 7.27497101169417 0.0
4.104192177581432 6.879858986267289 0.0
4.436230765617037 7.045693351607117 0.0
4.430360014817357 6.703971783962796 0.0
4.732390145036301 6.849841042423394 0.0
5.056161327708878 5.095276573498806 0.0
5.111586796021131 4.999081142133581 0.0
5.169267363407189 5.09444870412406 0.0
5.223795108752053 4.996986220359468 0.0
5.281480803887719 5.092780870372803 0.0
5.335670761900611 4.994887492556936 0.0
5.393485214772442 5.090486192743301 0.0
5.447323082877892 4.992601527033996 0.0
5.505243219343024 5.087953380710069 0.0
5.558739102026105 4.990287787962959 0.0
5.616491581184779 5.085335255235766 0.0
5.669852346908056 4.9879269227514 0.0
5.727502713908907 5.082679981817038 0.0
5.780766004135139 4.988313988715834 0.0
5.838244881129535 5.080480568766611 0.0
5.891357695677371 4.986433849408193 0.0
5.948696036767613 5.077969900389505 0.0
6.001601341641615 4.981313698556656 0.0
6.058851024265095 5.074871552128682 0.0
6.111614020704875 4.978360695880202 0.0
6.168801161530775 5.072044953270978 0.0
6.221368818778567 4.975825765213497 0.0
6.278268309066882 5.066182320461055 0.0
6.330814273567539 4.972837984645718 0.0
6.387565032421376 5.062889771971895 0.0
6.437476667631405 4.971693683589553 0.0
[...]
POINT_DATA 2538
VECTORS disp float
2.6912450212738985e-12 2.8858026269491255e-12 0.0
-6.93073513519527e-13 -1.1687443021396357e-12 0.0
0.0004000000002962172 4.97102227315381e-13 0.0
0.0003999999883658712 -1.1788222358389617e-11 0.0
0.00020840994028876016 8.209307947392081e-5 0.0
0.0002751866389139326 1.6332636850786504e-6 0.0
0.0002331019285395823 -2.0325952620118896e-6 0.0
-4.96471120673283e-13 -6.164128456436831e-13 0.0
1.7692235154103588e-13 1.6757312268908123e-13 0.0
1.167750035362809e-13 -1.1696582211811556e-13 0.0
7.856095467130837e-14 -4.3236202962178666e-14 0.0
-7.595695182000932e-15 -2.605872500586299e-13 0.0
5.180582090364748e-15 -3.4780381193178127e-13 0.0
1.3470833490724313e-14 -3.859622777575885e-13 0.0
3.5975094362857855e-14 -4.273890421763006e-13 0.0
-1.0276126953218962e-14 -4.648380535193875e-13 0.0
3.561816410482757e-14 -4.737014338879913e-13 0.0
2.1806673570611994e-14 -4.882359202503864e-13 0.0
2.435429120210792e-14 -4.961963616387089e-13 0.0
2.205793401869048e-14 -5.224141426248001e-13 0.0
1.7791766443100596e-14 -5.113555032160229e-13 0.0
-7.0865395280698856e-15 -5.665904632611276e-13 0.0
3.941938410613338e-14 -5.312914889568089e-13 0.0
4.525818598142738e-14 -5.408762491376477e-13 0.0
3.7340551259848684e-14 -4.983593126575336e-13 0.0
5.824406039884074e-14 -3.6374674974614267e-13 0.0
5.1996533822272477e-14 -2.9762014591734723e-13 0.0
5.794174198561143e-14 -2.72859685272509e-13 0.0
2.3095009667598242e-14 -2.679274452468746e-13 0.0
6.774669794744696e-14 -2.8430735441960906e-13 0.0
-1.645847332579812e-14 -3.690699552084849e-13 0.0
2.085683793143885e-13 -3.4743839456654547e-13 0.0
2.7194826399060773e-6 -1.5148010245452036e-6 0.0
8.239088900585634e-6 -3.2470269802951423e-6 0.0
1.4054240377877862e-5 -4.706625755902402e-6 0.0
1.9276857497012876e-5 -5.975980248742865e-6 0.0
2.374826343430378e-5 -7.076958010652091e-6 0.0
2.78135985745844e-5 -8.176006362141517e-6 0.0
3.1692458275103725e-5 -9.181647741999988e-6 0.0
3.5285380935017564e-5 -1.0194100121082262e-5 0.0
3.8716071662226e-5 -1.1231639204427346e-5 0.0
4.2047989665582164e-5 -1.2249752428546485e-5 0.0
4.527640078919524e-5 -1.3290255593381829e-5 0.0
4.845899422007866e-5 -1.4325373615230526e-5 0.0
5.156368495601588e-5 -1.535943421174538e-5 0.0
5.463928981876456e-5 -1.6426041962642272e-5 0.0
5.7698991945926754e-5 -1.7517687703103765e-5 0.0
6.071653985788584e-5 -1.862800258103999e-5 0.0
6.373297902051045e-5 -1.9742303431501047e-5 0.0
6.672882465369023e-5 -2.084147182164017e-5 0.0
6.969850733793696e-5 -2.1945737825564064e-5 0.0
7.268816459706293e-5 -2.3055335376996464e-5 0.0
7.569088749835205e-5 -2.4170826938628844e-5 0.0
7.869785774389401e-5 -2.5298191434293853e-5 0.0
8.172454237552435e-5 -2.6451928526934616e-5 0.0
8.475703956126318e-5 -2.7591811251627735e-5 0.0
8.784284469751588e-5 -2.873810352139017e-5 0.0
9.093013539732304e-5 -2.9861849088159267e-5 0.0
9.402116992461005e-5 -3.0966112975414595e-5 0.0
9.714537854310625e-5 -3.203235498014256e-5 0.0
0.00010030207412779906 -3.310975619351754e-5 0.0
0.0001034621762824647 -3.416613380504828e-5 0.0
0.00010668452768362483 -3.5190791545112855e-5 0.0
0.00010988102096243807 -3.617565550422784e-5 0.0
0.00011306591514594554 -3.712425755540652e-5 0.0
0.00011631517972586429 -3.804895271343509e-5 0.0
0.0001195742225049265 -3.899646126116135e-5 0.0
0.00012278847028116213 -3.992698101933384e-5 0.0
0.00012601855082474873 -4.0836600078889194e-5 0.0
0.00012920959484222358 -4.176284101507191e-5 0.0
0.00013231196485440216 -4.270653256910156e-5 0.0
0.00013531921059061936 -4.370049683043188e-5 0.0
0.000138196237761522 -4.471138134365563e-5 0.0
0.0001410619316794922 -4.577816606456837e-5 0.0
0.0001449288496231145 -4.644531921954455e-5 0.0
0.00014934698066398165 -4.771304051286655e-5 0.0
0.00015389593074656167 -4.920480181678401e-5 0.0
0.0001589372944195562 -5.075577338052769e-5 0.0
0.00016427754855284537 -5.233011625719139e-5 0.0
0.00017014679589110203 -5.30419508833514e-5 0.0
0.0001763922841287921 -5.365227071752279e-5 0.0
0.00018275407785305563 -5.3950072215213454e-5 0.0
0.00018869998582465177 -5.404591005955932e-5 0.0
0.0001945383212278972 -5.395440309515143e-5 0.0
0.00020002861870448556 -5.383457892259615e-5 0.0
0.00020541613407619973 -5.360589475464356e-5 0.0
0.0002106327501274869 -5.346879482916901e-5 0.0
0.00021578150512367928 -5.325004661232134e-5 0.0
0.00022089792773659448 -5.307773598201884e-5 0.0
0.0002258779457987145 -5.285675241117792e-5 0.0
0.00023065978621431016 -5.262111662842205e-5 0.0
0.00023528541769403152 -5.2369463460782704e-5 0.0
0.00023971244150430693 -5.2173781811363576e-5 0.0
0.00024403436421138722 -5.202279665504141e-5 0.0
0.00024822685908688224 -5.1919172513421715e-5 0.0
0.0002523188538051508 -5.187038005269683e-5 0.0
0.0002563120209182173 -5.18825911239947e-5 0.0
0.00026017979898499094 -5.201072753589523e-5 0.0
0.0002639345950302269 -5.222909524521584e-5 0.0
0.0002676396562649426 -5.252166693186104e-5 0.0
0.000271320174814657 -5.283403225191264e-5 0.0
0.0002749674101870001 -5.3142865345089544e-5 0.0
0.00027859398149592126 -5.339472682709239e-5 0.0
0.00028231313338614096 -5.35952742542301e-5 0.0
0.0002860372388451286 -5.373567773816499e-5 0.0
0.0002898615326478226 -5.381255520933496e-5 0.0
0.0002937363155111319 -5.384875743892657e-5 0.0
0.0002975166304457056 -5.3837525044256004e-5 0.0
0.0003011710827318473 -5.3799201921201206e-5 0.0
0.0003046404364959965 -5.3725678637257045e-5 0.0
0.0003080666675797776 -5.361993588662861e-5 0.0
0.00031139521466767107 -5.343469596197524e-5 0.0
0.0003146837390359058 -5.323618820897415e-5 0.0
0.00031782969115212977 -5.300768353465532e-5 0.0
0.0003209435867805422 -5.275725357574726e-5 0.0
0.00032402662084100853 -5.246711627190412e-5 0.0
0.00032700906028017946 -5.212430320430877e-5 0.0
0.0003299685636703496 -5.1743114584901906e-5 0.0
0.0003329192570442485 -5.1240116660361077e-5 0.0
0.00033574917508011413 -5.062617104920844e-5 0.0
0.0003386362226521935 -4.99111126929597e-5 0.0
0.00034164336649346577 -4.900829889799978e-5 0.0
0.00034463736912282135 -4.7810646545012865e-5 0.0
0.0003474152589134199 -4.6295350694055836e-5 0.0
0.00035028724994846553 -4.461983574537834e-5 0.0
0.00035328590619083 -4.282302421805942e-5 0.0
0.00035650272930412677 -4.086389854304978e-5 0.0
0.0003597298438711321 -3.814035915925342e-5 0.0
0.00036326712867270315 -3.403261688390221e-5 0.0
0.00037004808064403354 -2.976575675551786e-5 0.0
0.00037671261938739133 -2.0871207702020558e-5 0.0
0.000400000002573294 1.5277179514630623e-12 0.0
0.00039999999894914265 -1.432574011475792e-12 0.0
0.0003999999998165807 -1.965787963219577e-13 0.0
0.0003999999996394822 -4.576126258463639e-13 0.0
0.00039999999979545883 -1.3549064851243414e-13 0.0
0.0003999999998065023 5.3688242637858486e-14 0.0
0.0003999999998681293 2.3778444916989403e-13 0.0
0.0003999999999275753 4.0794579447977307e-13 0.0
0.00039999999995226536 4.909744814888648e-13 0.0
0.0003999999999734949 4.973311974296621e-13 0.0
0.00039999999999997736 4.2408394615961196e-13 0.0
0.00039999999994512063 4.443657664970651e-13 0.0
0.0003999999999644238 4.1015912216338123e-13 0.0
0.0003999999999510313 4.1560949850014797e-13 0.0
0.00039999999994778414 4.168690958533974e-13 0.0
0.00039999999994531845 4.1689401167716405e-13 0.0
0.0003999999999395388 4.2522207146075777e-13 0.0
0.00039999999993751804 4.108658230402181e-13 0.0
0.00039999999986535306 3.149345047591366e-13 0.0
0.0003999999998870907 1.669197549178222e-13 0.0
0.00039999999987524543 1.2006101782429614e-13 0.0
0.00039999999985519625 1.2047196986931135e-13 0.0
0.0003999999999086379 1.1871953651380998e-13 0.0
0.00039999999991605214 1.261954612536472e-13 0.0
0.0003999999998628427 1.8846280922370124e-13 0.0
0.0003698414353798036 5.490334185066801e-6 0.0
0.00033553551859942553 7.101812326975203e-6 0.0
0.000304641628296888 5.902551062675966e-6 0.0
0.0002867718898025408 2.312709221133236e-6 0.0
0.0002753788033674617 -7.398451889700139e-6 0.0
0.00027477658379085855 -1.3140214443536014e-5 0.0
0.0002733694722976537 -2.112543740872854e-5 0.0
0.00027104750993680156 -2.663325591793753e-5 0.0
0.00026848107831053405 -2.962835985173373e-5 0.0
0.00026533245411128776 -3.10066388929252e-5 0.0
0.0002623052579225625 -3.057976294753198e-5 0.0
0.000260131415986402 -2.6767782288743204e-5 0.0
0.00025827151053232857 -2.133079111567298e-5 0.0
0.0002546265217257733 -1.6036540624452473e-5 0.0
0.0002507894587969775 -1.191218263983013e-5 0.0
0.00024394265484555157 -8.530828154796914e-6 0.0
0.0002300552797510149 2.7949426888384516e-6 0.0
0.00022669886409656752 6.374182639500008e-6 0.0
0.0002225249934001361 9.214504014873305e-6 0.0
0.00021799934322656465 1.2131867796900716e-5 0.0
0.0002132552735855817 1.4771915762026602e-5 0.0
0.0002092356971987639 1.7993409223618308e-5 0.0
0.00020545380020129647 2.1538467593545456e-5 0.0
0.00020242917209439866 2.4109160372778645e-5 0.0
0.00020083720782335175 2.6893643947274686e-5 0.0
0.00020027162678538533 2.9705403406728562e-5 0.0
0.0002025233153853739 3.840462114579132e-5 0.0
0.00020555788338506956 5.607373339356673e-5 0.0
0.00017509229860262178 8.411005523810987e-5 0.0
0.00013858314820798097 8.39454527117555e-5 0.0
0.00010542263516644144 7.827367060100333e-5 0.0
6.993489345705255e-5 5.8564935269114126e-5 0.0
0.00010052155951866969 -3.165454713589562e-5 0.0
0.00027692599569535594 -4.9795879554192086e-5 0.0
0.00012343203800828297 -3.842728257184559e-5 0.0
0.0002504612135716858 -4.851555433924551e-5 0.0
0.00014645568328114895 -4.4144543534235364e-5 0.0
0.00021784088572526469 -4.811450488044077e-5 0.0
0.00017958577605076871 -4.800726349172396e-5 0.0
0.00030000564473106514 -5.036884902829197e-5 0.0
8.242383399950225e-5 -2.5612313509665248e-5 0.0
0.0003160855382302962 -4.942436369739831e-5 0.0
6.739462640650074e-5 -2.007353543108129e-5 0.0
8.013032138313689e-6 -1.1153502513492563e-6 0.0
0.0003876453282582389 8.656015447120298e-7 0.0
0.00023660306007894206 4.4060436955399145e-7 0.0
0.00025400798643148196 -2.2537673959302162e-5 0.0
0.00021990880089518076 1.7616303751336613e-6 0.0
0.00020795870603348437 1.6101996485108517e-5 0.0
0.00033184201886937606 -4.817739414891134e-5 0.0
5.2943589286352745e-5 -1.483714072574598e-5 0.0
5.425447693744835e-6 -8.778026908523093e-7 0.0
0.0003924587067454847 7.590048837631486e-7 0.0
0.0003821139186377453 1.0647977962031414e-6 0.0
1.045334437328233e-5 -1.30546744722504e-6 0.0
0.00034405447821786965 -4.466252398250529e-5 0.0
3.9812199607782916e-5 -1.013052155365578e-5 0.0
0.0002665760491803921 -2.751206146364755e-5 0.0
0.0001964364688262793 2.4565860772652062e-5 0.0
3.6853089369444133e-6 -3.6528643074845317e-7 0.0
0.00039437305254372897 6.850800345145192e-8 0.0
0.00013623154757529224 -4.235164656710155e-5 0.0
0.00016068724274960965 -4.6926924661262886e-5 0.0
0.00023761451875390976 -4.838681812331472e-5 0.0
0.0001978729885211965 -4.786563327145538e-5 0.0
0.00026209984572541056 -4.893736411950091e-5 0.0
0.0002876468181146698 -5.046693779383749e-5 0.0
0.00011443220276187766 -3.594829312135855e-5 0.0
9.15967730797973e-5 -2.8936813370981724e-5 0.0
0.0003527846312226216 -3.984906958769528e-5 0.0
2.9053547609548054e-5 -6.757129642077188e-6 0.0
0.0003790746945707653 -5.092260327769388e-7 0.0
1.1817387257021876e-5 -8.052916862813172e-7 0.0
0.00039458515733130725 -9.21943980174505e-7 0.0
2.7545936824201872e-6 -4.765432320966611e-8 0.0
0.00027573840565344365 -2.186731204656243e-5 0.0
0.00019195541840638682 2.8492815081026017e-5 0.0
0.00037495222616655343 -1.1352736406523988e-6 0.0
1.7213104366723992e-5 9.284217424330332e-7 0.0
6.589314499046267e-6 -1.0088711349137176e-6 0.0
0.0003900756937583939 8.174918425435531e-7 0.0
0.00024779311777052245 -1.1290357053592647e-5 0.0
0.00021483178820372914 9.7918283101509e-6 0.0
1.563143279239891e-5 -2.6610413729565176e-6 0.0
0.00036549450400343497 -2.9387583612000552e-5 0.0
0.0002692831574133485 -4.973251377073795e-5 0.0
0.0002080676190180573 -4.8272610368284006e-5 0.0
0.00013042887176182585 -4.04389469880472e-5 0.0
0.00010742684031662477 -3.4045030427877886e-5 0.0
0.00022842594869254348 -4.822459924048986e-5 0.0
0.00030643100115737153 -5.020714059102053e-5 0.0
7.643064869551622e-5 -2.334706381672937e-5 0.0
0.00032272386926091056 -4.92181996234183e-5 0.0
6.107161021945836e-5 -1.7681694524486844e-5 0.0
4.6191103614987174e-5 -1.2381350282420222e-5 0.0
0.00033776340269198093 -4.673156915067826e-5 0.0
0.0001190405639859354 4.462124351510444e-5 0.0
0.0003154678622044603 -3.8921702046551585e-6 0.0
0.00039430494093343837 -1.043416512491276e-6 0.0
1.7425750159085696e-6 -2.644303377470476e-8 0.0
0.00018985348965957209 4.310096892192966e-5 0.0
0.00028025257820863086 -1.0197308881853977e-5 0.0
1.9082691013211676e-5 1.7456146926239291e-6 0.0
0.00037798107805561053 -9.225071897162296e-7 0.0
4.417530345126752e-6 -6.306860456442035e-7 0.0
0.00038127890305477384 -1.3108447227606494e-5 0.0
0.00029283122142586345 -5.1583148983559875e-6 0.0
0.0002978420508703226 -8.38724364027145e-6 0.0
0.00032567492325066106 -5.6453953860521046e-6 0.0
0.0003079377413119904 -7.7794649140347e-6 0.0
0.00028783857144744167 -1.0907235566654591e-5 0.0
0.00029372529477482537 -8.826046976387214e-6 0.0
0.00031391407374347556 -6.4246179386599114e-6 0.0
0.0003003938546529026 -7.493807814816271e-6 0.0
0.0003195926666710353 -5.541465725960233e-6 0.0
0.0003068392396355344 -6.211380059993841e-6 0.0
0.00028971741601691215 -8.018133297230625e-6 0.0
0.0002953424821294762 -6.055505208227536e-6 0.0
0.0002811630380776597 -7.433261329672769e-6 0.0
0.0002854596393919899 -4.88308188687395e-6 0.0
0.00027312501647348624 -5.9933585298702144e-6 0.0
0.0002769238883021883 -1.8902081759913003e-6 0.0
0.00023421556097950113 -3.41542706415782e-7 0.0
0.00022969518594045067 -1.5813786388511623e-6 0.0
0.00023163061923414747 -7.276481889793463e-9 0.0
0.00022671082341840077 -1.2978728517390021e-6 0.0
0.00022903546466467159 2.4294607682779185e-7 0.0
0.0002241843908754517 -7.955758800097768e-7 0.0
0.00022676569144026548 5.353948957093768e-7 0.0
0.00022182947867569082 -5.21297187566712e-7 0.0
0.00022455541959120985 7.673155793690792e-7 0.0
0.00021957024983406998 -3.123190597561848e-7 0.0
0.00022244850191018565 9.396532201876763e-7 0.0
0.00021747732759696024 -9.943367679808167e-8 0.0
0.0002205005083153129 9.971340347851214e-7 0.0
0.00021569540883350634 1.4264535391713832e-7 0.0
0.0002186862487626416 1.230295709624275e-6 0.0
0.00021387074757479816 3.985298169103018e-7 0.0
0.00021698349291168873 1.333096937706199e-6 0.0
0.00021197249873447136 4.305963818302545e-7 0.0
0.00021532628608431962 1.3583429615890645e-6 0.0
0.00021030529020914522 5.685926561409758e-7 0.0
0.00021376057742257868 1.4558022037289171e-6 0.0
0.00020872792240486852 6.978152901742519e-7 0.0
0.00021212199725337234 1.5147185799200438e-6 0.0
0.00020717416496587336 7.558735168674302e-7 0.0
0.00021063861531116484 1.4970877948495095e-6 0.0
0.00020582211417786119 8.116479924031263e-7 0.0
0.00020921833441501315 1.5887140285361435e-6 0.0
0.00020422210565636698 8.196207074150825e-7 0.0
0.00020777112691011673 1.6068941466791175e-6 0.0
0.00020158983248573216 5.915961654304247e-7 0.0
0.00020660870905242569 1.5279044226221666e-6 0.0
0.00020127874398422874 8.115155707284237e-7 0.0
0.0002052601010343683 1.5070040224535625e-6 0.0
0.00020010485470489306 7.508752604101647e-7 0.0
0.00020399277132328834 1.3860744755045534e-6 0.0
0.00019910806039257013 6.529842642580739e-7 0.0
0.0002027148239609405 1.2498087798132821e-6 0.0
0.00019788719005506337 5.180240693568881e-7 0.0
0.00021431735612039817 -1.5251955484978057e-6 0.0
0.00020146541506680258 1.036585932541555e-6 0.0
0.0002056255700298132 -4.353458001367436e-7 0.0
0.00019555990679691587 -1.4298742076511888e-7 0.0
0.0001963387030945907 2.1004072348614405e-7 0.0
0.00020021097762183994 7.180148768398286e-7 0.0
0.00019479114151969092 -1.6726705927838247e-7 0.0
0.00019061385968306368 -6.735474194365857e-7 0.0
0.00018886057152429903 -1.1169855484923656e-6 0.0
0.00019874055999178085 3.0069354194061496e-7 0.0
0.0002038056162826182 1.152780963104783e-6 0.0
0.0002096404213091353 2.120955580640064e-6 0.0
0.00020246412943524883 6.771041070288776e-7 0.0
0.00020753906425308752 1.546008496849761e-6 0.0
0.00020610884796370185 9.464871084116082e-7 0.0
0.00018449138785319333 -1.6217827481316585e-6 0.0
0.00018295552816688455 -2.065896875007884e-6 0.0
0.00021112072697728157 1.8050407019185226e-6 0.0
0.0001780828588109014 -2.606910594410525e-6 0.0
0.00017686637095489064 -3.0588118711898165e-6 0.0
0.00020989654013825002 1.1438134948168616e-6 0.0
0.00021456161680738923 1.9152974005889335e-6 0.0
0.00017156642404495638 -3.602404100073297e-6 0.0
0.00017023471131614171 -4.120753381492827e-6 0.0
0.00021357008754999333 1.1968930102175468e-6 0.0
0.00021824559079637856 1.9559058591997545e-6 0.0
0.00016517074188399046 -4.581715340415036e-6 0.0
0.00016379065275623768 -5.1884789821204e-6 0.0
0.00021734745413654063 1.1209434648689025e-6 0.0
0.0002220806696783591 1.8914607033092099e-6 0.0
0.00015902702376838798 -5.524094530023103e-6 0.0
0.0001573135242237191 -6.220604955325832e-6 0.0
0.0002213533670031911 9.507795736631467e-7 0.0
0.00022604888361694186 1.7204905652257991e-6 0.0
0.00015248204851806086 -6.486133812421054e-6 0.0
0.00015093895032065914 -7.261696680526605e-6 0.0
0.0001459330365783797 -7.504146295943394e-6 0.0
0.00014748557867601985 -6.7490874499738905e-6 0.0
0.0002161357193636951 1.533999417853073e-7 0.0
0.00022540493201985754 6.385819254382215e-7 0.0
0.00023017356948201669 1.4382220316001853e-6 0.0
0.0002308368589321216 2.4839495205041287e-6 0.0
0.00021609091616440682 2.165190908211843e-6 0.0
0.00023511812064685544 2.221994987935452e-6 0.0
0.00023575957605956487 3.2004183713549315e-6 0.0
0.00024019722679957436 2.987263549930635e-6 0.0
0.00014486129456503576 -8.335103171233637e-6 0.0
0.00013995560362868877 -8.449653098346867e-6 0.0
0.00014976113129025828 -8.1460945286468e-6 0.0
0.00022949027650400342 1.8025848624277527e-7 0.0
0.00013900511065668432 -9.305696511272038e-6 0.0
0.00013422059146789614 -9.295868388573833e-6 0.0
0.0002225890149972981 2.017073300320696e-6 0.0
0.0001333510801999414 -1.0149169944808638e-5 0.0
0.00012867580484292716 -1.0027574909098979e-5 0.0
0.00012788366309834364 -1.091802722636561e-5 0.0
0.00012335793980589973 -1.0634488997461725e-5 0.0
0.00012401034550070633 -9.862507864036407e-6 0.0
0.00011825452076183655 -1.0439796963006764e-5 0.0
0.00011900445630493627 -9.642905682459434e-6 0.0
0.00012201103452623716 -1.1591196290731817e-5 0.0
0.00011280445166728863 -1.0175154674091984e-5 0.0
0.00011351356908794949 -9.419682682771796e-6 0.0
0.00012714396928474172 -1.1920331038836757e-5 0.0
0.00012213151454735957 -1.259377201011285e-5 0.0
0.000107490256666237 -9.799522244890818e-6 0.0
0.00010796988604286679 -9.144366320761128e-6 0.0
0.00024089755452551338 3.819574407426211e-6 0.0
0.0002455998089086377 3.6329192481614215e-6 0.0
0.0001264414624305136 -1.2974726382952378e-5 0.0
0.00012156448450034596 -1.3592926933625296e-5 0.0
0.00024629166896497016 4.3534931953917924e-6 0.0
0.00025137898300337235 4.190255920706545e-6 0.0
0.00025050087405090437 3.271559654616377e-6 0.0
0.0002565308244902645 3.932925062596019e-6 0.0
0.00025579305843028864 2.7905415963500477e-6 0.0
0.0002620044659014271 3.5945065209713045e-6 0.0
0.0002616106242614765 2.2554070890542053e-6 0.0
0.0002682059193415442 3.286789779890781e-6 0.0
0.00026728255048880144 1.7336062492086216e-6 0.0
0.00026856118268579364 4.299969704733485e-6 0.0
0.0002741912231887845 2.8466617671231977e-6 0.0
0.0002729421274091391 1.027478098652695e-6 0.0
0.00012584699113909784 -1.40357402533189e-5 0.0
0.00010158641069506937 -9.442407435290859e-6 0.0
0.00010193564802640984 -8.828944903900096e-6 0.0
0.00026660416376639924 -4.5964397802437304e-7 0.0
0.00027208270326599333 -1.428382568694969e-6 0.0
0.0002784282303495826 2.109809752766074e-7 0.0
0.00026624434251503636 -3.19930077458138e-6 0.0
0.00012113951333051572 -1.4605730760876347e-5 0.0
0.0002776430008404076 -2.6115919612318135e-6 0.0
0.0002839279055162821 -7.565813308340813e-7 0.0
0.0001252831037586756 -1.5107689914297142e-5 0.0