# vtk DataFile Version 2.0
phase field modeling fracture
ASCII
DATASET UNSTRUCTURED_GRID
POINTS 2538 float
0.0 0.0 0.0
10.0 0.0 0.0
0.0 10.0 0.0
10.0 10.0 0.0
0.0 4.9995 0.0
0.0 5.0005 0.0
5.0 5.0 0.0
0.9416964895726688 0.0 0.0
1.803581725054446 0.0 0.0
2.592419885431098 0.0 0.0
3.314401822861676 0.0 0.0
3.975193910351406 0.0 0.0
4.579982132660152 0.0 0.0
5.133512780936812 0.0 0.0
5.640130319506143 0.0 0.0
6.103810708661955 0.0 0.0
6.528192895506818 0.0 0.0
6.916607540127679 0.0 0.0
7.272102969376355 0.0 0.0
7.597469242948583 0.0 0.0
7.895259826292669 0.0 0.0
8.167811885738017 0.0 0.0
8.417264413845215 0.0 0.0
8.645575169389538 0.0 0.0
8.854535961159101 0.0 0.0
9.045786767735546 0.0 0.0
9.220828555767493 0.0 0.0
9.38103509633881 0.0 0.0
9.527663687265145 0.0 0.0
9.661865124984566 0.0 0.0
9.784692609918062 0.0 0.0
9.897110148790482 0.0 0.0
10.0 0.09999999999992584 0.0
10.0 0.199999999999856 0.0
10.0 0.2999999999997771 0.0
10.0 0.3999999999996677 0.0
10.0 0.4999999999995511 0.0
10.0 0.5999999999994683 0.0
10.0 0.6999999999993983 0.0
10.0 0.7999999999993286 0.0
10.0 0.8999999999992587 0.0
10.0 0.9999999999991888 0.0
10.0 1.099999999999119 0.0
10.0 1.199999999999033 0.0
10.0 1.299999999998852 0.0
10.0 1.399999999998576 0.0
10.0 1.499999999998284 0.0
10.0 1.599999999997992 0.0
10.0 1.6999999999977 0.0
10.0 1.799999999997408 0.0
10.0 1.899999999997116 0.0
10.0 1.999999999996825 0.0
10.0 2.099999999996533 0.0
10.0 2.199999999996241 0.0
10.0 2.299999999995949 0.0
10.0 2.399999999995657 0.0
10.0 2.499999999995365 0.0
10.0 2.599999999995073 0.0
10.0 2.699999999994782 0.0
10.0 2.79999999999449 0.0
10.0 2.899999999994198 0.0
10.0 2.999999999993906 0.0
10.0 3.099999999993614 0.0
10.0 3.199999999993322 0.0
10.0 3.299999999993029 0.0
10.0 3.399999999992738 0.0
10.0 3.499999999992446 0.0
10.0 3.599999999992154 0.0
10.0 3.699999999991863 0.0
10.0 3.799999999991571 0.0
10.0 3.899999999991278 0.0
10.0 3.999999999991022 0.0
10.0 4.099999999991035 0.0
10.0 4.199999999991187 0.0
10.0 4.299999999991338 0.0
10.0 4.399999999991491 0.0
10.0 4.499999999991642 0.0
10.0 4.599999999991795 0.0
10.0 4.699999999991947 0.0
10.0 4.799999999992099 0.0
10.0 4.89999999999225 0.0
10.0 4.999999999992403 0.0
10.0 5.099999999992555 0.0
10.0 5.199999999992706 0.0
10.0 5.299999999992858 0.0
10.0 5.39999999999301 0.0
10.0 5.499999999993161 0.0
10.0 5.599999999993313 0.0
10.0 5.699999999993466 0.0
10.0 5.799999999993618 0.0
10.0 5.899999999993771 0.0
10.0 5.999999999993922 0.0
10.0 6.099999999994074 0.0
10.0 6.199999999994227 0.0
10.0 6.299999999994378 0.0
10.0 6.39999999999453 0.0
10.0 6.499999999994682 0.0
10.0 6.599999999994833 0.0
10.0 6.699999999994986 0.0
10.0 6.799999999995138 0.0
10.0 6.899999999995289 0.0
10.0 6.999999999995442 0.0
10.0 7.099999999995594 0.0
10.0 7.199999999995747 0.0
10.0 7.299999999995897 0.0
10.0 7.39999999999605 0.0
10.0 7.499999999996202 0.0
10.0 7.599999999996353 0.0
10.0 7.699999999996505 0.0
10.0 7.799999999996658 0.0
10.0 7.899999999996808 0.0
10.0 7.999999999996962 0.0
10.0 8.099999999997113 0.0
10.0 8.199999999997265 0.0
10.0 8.299999999997418 0.0
10.0 8.399999999997569 0.0
10.0 8.499999999997721 0.0
10.0 8.599999999997873 0.0
10.0 8.699999999998024 0.0
10.0 8.799999999998176 0.0
10.0 8.899999999998329 0.0
10.0 8.99999999999848 0.0
10.0 9.099999999998634 0.0
10.0 9.199999999998786 0.0
10.0 9.299999999998937 0.0
10.0 9.399999999999089 0.0
10.0 9.499999999999241 0.0
10.0 9.599999999999392 0.0
10.0 9.699999999999545 0.0
10.0 9.799999999999697 0.0
10.0 9.899999999999848 0.0
9.897110148790565 10.0 0.0
9.784692609918244 10.0 0.0
9.66186512498486 10.0 0.0
9.527663687265571 10.0 0.0
9.381035096339392 10.0 0.0
9.220828555768257 10.0 0.0
9.045786767736512 10.0 0.0
8.854535961160305 10.0 0.0
8.645575169391027 10.0 0.0
8.417264413847017 10.0 0.0
8.167811885740178 10.0 0.0
7.895259826295246 10.0 0.0
7.597469242951631 10.0 0.0
7.272102969379938 10.0 0.0
6.916607540131873 10.0 0.0
6.528192895511704 10.0 0.0
6.103810708667616 10.0 0.0
5.640130319512691 10.0 0.0
5.13351278094435 10.0 0.0
4.579982132668816 10.0 0.0
3.975193910361222 10.0 0.0
3.314401822869852 10.0 0.0
2.592419885437257 10.0 0.0
1.803581725058137 10.0 0.0
0.9416964895740705 10.0 0.0
0.0 9.00010000000243 0.0
0.0 8.000200000005481 0.0
0.0 7.000300000005135 0.0
0.0 6.000400000002569 0.0
0.901790731451151 5.000409820926855 0.0
1.657200899774397 5.000334279910023 0.0
2.289991063707192 5.000271000893629 0.0
2.820065163538221 5.000217993483646 0.0
3.264096435579811 5.000173590356442 0.0
3.636051481595835 5.00013639485184 0.0
3.947629914072366 5.000105237008593 0.0
4.208632181002628 5.0000791367819 0.0
4.427267949625672 5.000057273205037 0.0
4.610414277633563 5.000038958572237 0.0
4.763831845154243 5.000023616815485 0.0
4.892346298799659 5.00001076537012 0.0
4.892346298799748 4.99998923462988 0.0
4.763831845154455 4.999976383184515 0.0
4.610414277633943 4.999961041427763 0.0
4.427267949626277 4.999942726794963 0.0
4.208632181003523 4.9999208632181 0.0
3.94762991407365 4.999894762991407 0.0
3.636051481597624 4.99986360514816 0.0
3.264096435582253 4.999826409643559 0.0
2.820065163541503 4.999782006516354 0.0
2.289991063711534 4.999728999106371 0.0
1.657200899778495 4.999665720089978 0.0
0.9017907314530094 4.999590179073145 0.0
0.0 3.999600000002013 0.0
0.0 2.999700000005187 0.0
0.0 1.99980000000512 0.0
0.0 0.9999000000025537 0.0
9.897889398521345 2.93573355845387 0.0
9.906568249974548 7.060009441434234 0.0
9.913122631074113 3.64016132281653 0.0
9.922462129543863 6.354535290629151 0.0
9.917693659967533 4.354211663134567 0.0
9.909873057440208 5.637584487339942 0.0
9.914183254994697 4.950672966925282 0.0
9.913885043715895 7.666887930262611 0.0
9.91009668007573 2.351889069770817 0.0
9.905135696074536 8.138152454502785 0.0
9.913397459621809 1.849999999997262 0.0
7.099302372137626 0.297750452375005 0.0
7.095143729410097 9.700359990366296 0.0
4.942912558701401 5.095838627899509 0.0
4.315009232304429 5.165022115481685 0.0
4.946182472483878 4.906763777264103 0.0
4.317967462990024 4.825955043772673 0.0
9.916390871492647 8.64999999999792 0.0
9.921504649680616 1.368376469890358 0.0
8.292538149791614 0.206877570318844 0.0
8.292538149793597 9.793122429681448 0.0
5.884594439766573 9.587645267048616 0.0
5.794826292691579 0.3794853783929359 0.0
9.913397459621425 9.049999999998557 0.0
9.908526577714177 0.9568239351922434 0.0
3.456851160380649 5.315740054130451 0.0
3.457889657868442 4.707121019609468 0.0
8.945214200703926 0.1503383337970344 0.0
8.950161364448409 9.8413906539257 0.0
9.913862335499305 4.055887885208452 0.0
9.916697353372683 4.650158482607802 0.0
9.919076340414442 6.049999999994006 0.0
9.906994308667635 5.25749687748192 0.0
9.917490342358025 6.655979201891897 0.0
9.915757520293784 7.343848891656911 0.0
9.910049507471042 3.363474386285078 0.0
9.914471988502868 2.647400064832979 0.0
9.91474124160965 9.337490423485129 0.0
9.916971008170838 0.6499999999994355 0.0
4.307157269264427 9.509674045029644 0.0
4.331527375865619 0.4401616696422582 0.0
9.45434939180249 9.878397030523757 0.0
9.457696120412969 0.1270877537061785 0.0
2.555070293622606 5.422044496190925 0.0
2.566232917480916 4.608001224030952 0.0
3.026511860837692 9.332320638257093 0.0
2.945561971800619 0.5895662714727601 0.0
7.7395404387124 0.2511088946967771 0.0
7.736379255744154 9.745848826372828 0.0
4.687135269408529 5.122111433928926 0.0
4.688420821504113 4.871895064967488 0.0
9.910554884115975 0.3448356354522978 0.0
9.911230082250466 9.65764729394159 0.0
9.921953841410854 6.851023993342036 0.0
9.912065178606017 5.448170483544033 0.0
9.911660025326261 3.861846960030188 0.0
9.914847467973438 3.14501593945607 0.0
9.913397459621425 5.849999999993703 0.0
9.913397459621425 7.849999999996735 0.0
9.906916878988277 2.15455769998631 0.0
9.913397459621425 8.349999999997479 0.0
9.909472363117661 1.640528221515488 0.0
9.913987325695956 1.152857110636247 0.0
9.913397459621425 8.849999999998241 0.0
0.9100099990995943 2.614215977520411 0.0
0.8395284981715456 7.451196254860987 0.0
9.723278867451556 9.898135916635193 0.0
9.723316350887044 0.09841820909386662 0.0
1.385819164827588 4.454539963646463 0.0
1.338343629665047 5.523111536005823 0.0
1.377179700550677 0.6809168304959698 0.0
1.418060461092743 9.285896715136046 0.0
9.91268220142518 0.1457914080939694 0.0
9.906737126737994 9.845745933882352 0.0
0.7108351382691361 6.537941170074089 0.0
1.527735020267026 6.915620208855231 0.0
1.630993885659103 7.838271825205868 0.0
2.232760943566823 7.370850737296832 0.0
2.243414218068206 6.688299277952821 0.0
2.779655053105118 7.021588754814074 0.0
2.80227799359795 7.632420170547022 0.0
3.282022065908813 7.305859666021318 0.0
3.327597298795347 7.857554136825748 0.0
3.743210251018715 7.549183328204379 0.0
3.716353232200752 7.062036086888612 0.0
4.111978858674101 7.27497101169417 0.0
4.104192177581432 6.879858986267289 0.0
4.436230765617037 7.045693351607117 0.0
4.430360014817357 6.703971783962796 0.0
4.732390145036301 6.849841042423394 0.0
5.056161327708878 5.095276573498806 0.0
5.111586796021131 4.999081142133581 0.0
5.169267363407189 5.09444870412406 0.0
5.223795108752053 4.996986220359468 0.0
5.281480803887719 5.092780870372803 0.0
5.335670761900611 4.994887492556936 0.0
5.393485214772442 5.090486192743301 0.0
5.447323082877892 4.992601527033996 0.0
5.505243219343024 5.087953380710069 0.0
5.558739102026105 4.990287787962959 0.0
5.616491581184779 5.085335255235766 0.0
5.669852346908056 4.9879269227514 0.0
5.727502713908907 5.082679981817038 0.0
5.780766004135139 4.988313988715834 0.0
5.838244881129535 5.080480568766611 0.0
5.891357695677371 4.986433849408193 0.0
5.948696036767613 5.077969900389505 0.0
6.001601341641615 4.981313698556656 0.0
6.058851024265095 5.074871552128682 0.0
6.111614020704875 4.978360695880202 0.0
6.168801161530775 5.072044953270978 0.0
6.221368818778567 4.975825765213497 0.0
6.278268309066882 5.066182320461055 0.0
6.330814273567539 4.972837984645718 0.0
6.387565032421376 5.062889771971895 0.0
6.437476667631405 4.971693683589553 0.0
[...]
POINT_DATA 2538
VECTORS disp float
1.6098520720178244e-11 3.8724819503316054e-11 0.0
3.1525030817816476e-11 -8.525429293197942e-11 0.0
0.003599999989607748 2.6365683043256384e-11 0.0
0.0035999999659721504 -9.323773116823526e-11 0.0
0.0012084928180336422 0.0004936515812005586 0.0
0.0026061897878122413 0.0002394810560251174 0.0
0.0017727102134320713 9.575825891960303e-5 0.0
3.6565121731491525e-12 1.7973685106068744e-12 0.0
7.211611590183573e-12 8.069287692241615e-12 0.0
6.322919991709826e-12 4.493413888623081e-12 0.0
5.992447031339724e-12 4.125210788713814e-12 0.0
5.372225971681318e-12 2.9067160705299367e-12 0.0
4.904828977468766e-12 1.910599101144516e-12 0.0
4.466237300284164e-12 9.579564805396113e-13 0.0
4.132308570800183e-12 -6.650989249815303e-14 0.0
3.5372099923332014e-12 -1.1916409307700015e-12 0.0
3.778793832633691e-12 -2.241373507008646e-12 0.0
3.64998325414112e-12 -3.4906365953400572e-12 0.0
3.727576222870703e-12 -4.842115283011389e-12 0.0
3.925164174574821e-12 -6.203908684964332e-12 0.0
3.949246768084997e-12 -7.454314692412079e-12 0.0
4.276342356850952e-12 -8.962921598970728e-12 0.0
4.32848056853528e-12 -1.0178759148599871e-11 0.0
4.627038888536808e-12 -1.1653950010921271e-11 0.0
4.7971218155743245e-12 -1.3283190776797847e-11 0.0
5.0422519502087215e-12 -1.4829768593459642e-11 0.0
5.352089809221401e-12 -1.6708300379800528e-11 0.0
5.752466706473262e-12 -1.8832712551915606e-11 0.0
6.418954487770316e-12 -2.1483560657194725e-11 0.0
6.5346372985826856e-12 -2.4316714572551937e-11 0.0
9.060715061123566e-12 -3.1183717508049637e-11 0.0
4.186189185938393e-12 -2.8115549048802543e-11 0.0
4.575506954742147e-5 -5.7969763936546793e-5 0.0
7.947371379901949e-5 -9.941492020600817e-5 0.0
0.000112115972610433 -0.00013539334401980793 0.0
0.00014326665246389522 -0.0001679835761343318 0.0
0.00017335658867207685 -0.00019823328318052905 0.0
0.00020298992818378823 -0.0002269596258379321 0.0
0.00023265805743301479 -0.0002542620592530971 0.0
0.00026208256644171234 -0.00028037969671022205 0.0
0.0002915271961375466 -0.00030556191981312154 0.0
0.00032107227014636935 -0.0003298023828460148 0.0
0.0003507304612335482 -0.0003533202089806961 0.0
0.00038073890528672946 -0.00037611136305807746 0.0
0.0004108722524463573 -0.00039817800154180055 0.0
0.0004412765730816328 -0.000419695154860317 0.0
0.0004721401648859159 -0.00044060411945109207 0.0
0.0005031300002400823 -0.0004608901424523901 0.0
0.0005344678108954547 -0.0004806784188114099 0.0
0.0005661486982149233 -0.0004998614375852254 0.0
0.0005981438290314556 -0.0005185547856890341 0.0
0.0006304712194365974 -0.000536750033231453 0.0
0.0006631715741381766 -0.0005544473748381947 0.0
0.0006961680511415869 -0.0005716372979828444 0.0
0.0007296640854731354 -0.0005883930808103393 0.0
0.0007633290799346727 -0.0006046244270864434 0.0
0.0007975427717261687 -0.000620408377685476 0.0
0.0008318971453744201 -0.0006356662465138008 0.0
0.0008666710445069974 -0.0006504879617396324 0.0
0.0009017126216685889 -0.0006647745391544475 0.0
0.0009372344121750342 -0.0006786396396307062 0.0
0.0009728721134483586 -0.000692009157380966 0.0
0.0010089926746857391 -0.0007049388599020103 0.0
0.001045362388890126 -0.0007173364047027081 0.0
0.0010820785458725733 -0.0007292840616546582 0.0
0.0011190023094499728 -0.0007407217173907453 0.0
0.0011563631778784467 -0.0007517060716046973 0.0
0.0011938175433083016 -0.000762143878913174 0.0
0.001231610288869824 -0.0007720989576202399 0.0
0.0012695823439166103 -0.0007814713579656898 0.0
0.0013078117370946625 -0.000790285466082903 0.0
0.0013462439315457067 -0.0007986459697360757 0.0
0.0013848379922495905 -0.0008063831365408745 0.0
0.0014237083660664375 -0.0008136590447428568 0.0
0.0014627772127672476 -0.0008203446628938569 0.0
0.0015019572005903724 -0.0008265633196868935 0.0
0.0015413451329510512 -0.0008321382822880345 0.0
0.0015807117149289464 -0.0008372231823016382 0.0
0.0016202864138844951 -0.0008417783804964971 0.0
0.0016598773117099343 -0.0008457334346221739 0.0
0.0016995326768577646 -0.000849217304902802 0.0
0.001739342303169503 -0.0008520975868647052 0.0
0.0017788296778962 -0.0008542977546302785 0.0
0.0018186983973593072 -0.0008560464962352956 0.0
0.0018578485284161542 -0.0008571032252573353 0.0
0.0018974479043388777 -0.000857623438771383 0.0
0.0019354560150469866 -0.0008573655012979684 0.0
0.0019745353401283837 -0.0008564523826460166 0.0
0.002012185516047887 -0.0008549576257391293 0.0
0.0020496361080810854 -0.0008524040124237911 0.0
0.0020869029864097216 -0.0008493597332998446 0.0
0.002124026697414918 -0.000845003831135773 0.0
0.0021607956059604577 -0.0008400788664222632 0.0
0.0021975383010199735 -0.0008339563059661711 0.0
0.002234694518260889 -0.0008270998509709916 0.0
0.002271528099624521 -0.0008187613340355463 0.0
0.002308965635700981 -0.0008095184161325701 0.0
0.002346670701990283 -0.0007993560459493408 0.0
0.002384018109194911 -0.0007882156618727565 0.0
0.0024216270825209987 -0.0007764325910388877 0.0
0.0024594858132528257 -0.00076386409861413 0.0
0.0024974191135437363 -0.0007505876272696672 0.0
0.0025351045456959635 -0.0007367316828490797 0.0
0.0025730254783381465 -0.0007221272026610757 0.0
0.0026105935817537654 -0.0007069423108054714 0.0
0.0026480419709115376 -0.0006913384291563229 0.0
0.002685544532105178 -0.0006750362164416595 0.0
0.0027226441842394715 -0.0006582855631111713 0.0
0.002759655828430278 -0.0006409864583132876 0.0
0.0027964072331580414 -0.0006231639454870301 0.0
0.0028330870664456257 -0.0006048045675119718 0.0
0.0028695490066164265 -0.0005858451115417491 0.0
0.002905792754157891 -0.0005663196213045001 0.0
0.0029416329669714227 -0.0005462771023707177 0.0
0.002977339663210276 -0.0005256890120655303 0.0
0.0030129049381325225 -0.0005044631242975573 0.0
0.003048152354281309 -0.000482642561481297 0.0
0.003083271993065952 -0.00046025817553243127 0.0
0.0031183866688357566 -0.0004371147464146712 0.0
0.0031532268562566557 -0.00041324664147068726 0.0
0.0031878665082436157 -0.0003887052560892805 0.0
0.0032226203056707377 -0.0003633253774209856 0.0
0.0032574748497189495 -0.00033696215643229393 0.0
0.003292227540034274 -0.00030956487007623233 0.0
0.003326972401754638 -0.0002811006782871498 0.0
0.0033619939779142402 -0.0002512959265926314 0.0
0.003397727102001005 -0.00021978976982328668 0.0
0.003433709393363872 -0.00018635693710048864 0.0
0.0034703494163720204 -0.00015021543332564572 0.0
0.003509254140322498 -0.00011003872360172789 0.0
0.0035492184069605163 -6.379117581090018e-5 0.0
0.0035999999951892053 -2.705877869388953e-11 0.0
0.003599999989850098 -3.0000755780369114e-11 0.0
0.003599999993060718 -1.9882740286845236e-11 0.0
0.0035999999930914463 -1.744242403850731e-11 0.0
0.003599999993614979 -1.456239044691667e-11 0.0
0.00359999999392364 -1.2488736624784163e-11 0.0
0.0035999999940523387 -1.0937008447004619e-11 0.0
0.0035999999942835786 -9.549340692151241e-12 0.0
0.0035999999943690277 -8.281380927533237e-12 0.0
0.003599999994542937 -7.064712145910415e-12 0.0
0.003599999994780899 -6.0849026269320576e-12 0.0
0.0035999999948588784 -4.8232274824674445e-12 0.0
0.003599999995000412 -3.878019032161011e-12 0.0
0.0035999999951333416 -2.763942443283275e-12 0.0
0.003599999995203616 -1.6942840610470393e-12 0.0
0.003599999995220433 -5.357072305257841e-13 0.0
0.003599999995270691 6.252194481316829e-13 0.0
0.0035999999948364047 1.964947688474944e-12 0.0
0.003599999995185443 3.0596276768030484e-12 0.0
0.0035999999944419468 4.480761718699331e-12 0.0
0.003599999994451513 5.42826636831561e-12 0.0
0.0035999999941919133 6.461974056054812e-12 0.0
0.003599999994399848 6.734327712958304e-12 0.0
0.0035999999943810575 8.992723112319027e-12 0.0
0.003599999997089992 3.922621224577215e-12 0.0
0.0033300033106582905 0.00016992410522686372 0.0
0.0030994725815327267 0.00024666876060586043 0.0
0.0028943686037932693 0.00026774903002312755 0.0
0.0027213511570014976 0.00025775249470368913 0.0
0.0026009188453553047 0.00013162396913108616 0.0
0.002583330456419901 7.601858531862251e-5 0.0
0.002539679329962393 5.287472085401534e-5 0.0
0.0024869640575977984 5.080083372516173e-5 0.0
0.00242617273950126 5.9111721505810735e-5 0.0
0.0023620768740334835 6.878606590713468e-5 0.0
0.0022955839668976196 7.793934433761676e-5 0.0
0.0022276066060782176 8.765623597815687e-5 0.0
0.0021567273263062023 9.547220215317076e-5 0.0
0.0020822839134346832 0.00010081970281690686 0.0
0.002000504460143233 0.00010338846647157443 0.0
0.0019035333599095067 0.0001041509134764353 0.0
0.0016538381995046137 0.0001343801321765878 0.0
0.0015700236184512913 0.00014802345453671879 0.0
0.0015010061763959294 0.00015480183165113827 0.0
0.0014410222268578074 0.00015985853455451477 0.0
0.001386815050814681 0.00016463392899527062 0.0
0.0013379396195601903 0.0001700441667265156 0.0
0.00129414565012634 0.00017736849126187077 0.0
0.001256983244777494 0.00018806417016226646 0.0
0.0012281285585720911 0.000206725695205324 0.0
0.001208527375177243 0.00023675669365669916 0.0
0.0012041852631442481 0.0002902145747646382 0.0
0.001204348895120668 0.0003691102118393949 0.0
0.0010737912835311776 0.0005068087166505449 0.0
0.0008795918160358267 0.00048160307863695653 0.0
0.0006159317172244159 0.00039436379478340614 0.0
0.000327352925883495 0.0002564655315819865 0.0
0.0009438725241050673 -0.0006501419584779448 0.0
0.0025276822282035683 -0.000700578298698433 0.0
0.0012047012876931966 -0.0007363233863474916 0.0
0.0022591182445774716 -0.0007871015598868947 0.0
0.001481145465141234 -0.000794663880758444 0.0
0.001990039292269386 -0.0008209764294571196 0.0
0.0017182608395225874 -0.0008197311342636747 0.0
0.0027553651730734814 -0.0006105318558806503 0.0
0.0007410871136983086 -0.0005688994372830189 0.0
0.0029288710222209343 -0.0005208095951285715 0.0
0.0005758110411064359 -0.0004836267013642121 0.0
5.922245832356474e-5 -1.0690059294807882e-5 0.0
0.0035379410575233435 -9.311478986913605e-6 0.0
0.0019199777929084568 0.00012257252644235815 0.0
0.002198281203274482 0.00011132305756291666 0.0
0.00162550632116334 0.00013745550717289467 0.0
0.0013945030035440707 0.000176146052310296 0.0
0.003109709891298147 -0.0004168556183630831 0.0
0.00042537095577272713 -0.00039073854237012175 0.0
4.197618136849222e-5 -1.914178253039179e-5 0.0
0.003555866388202287 -1.567172342638281e-5 0.0
0.003512196931178574 2.7327947471184597e-6 0.0
7.901324176981922e-5 2.796550629614989e-6 0.0
0.0032498360838059096 -0.0003183250483201836 0.0
0.0003004384593937235 -0.000294556865791703 0.0
0.0023936167738337136 9.107925112747979e-5 0.0
0.0012454311211978076 0.00019483928861277112 0.0
3.184443384645464e-5 -2.053432606081443e-5 0.0
0.0035648124287177593 -1.784382844692545e-5 0.0
0.0013643664922845873 -0.000772885256007906 0.0
0.0015983453874871502 -0.0008098698264101296 0.0
0.0021452998107002593 -0.0008070918799484991 0.0
0.0018408053468907837 -0.0008226123198999706 0.0
0.002373369133313203 -0.0007553874881487571 0.0
0.0026343083529306493 -0.0006635576083139546 0.0
0.0011006976215974166 -0.0007062188917874781 0.0
0.0008429272088465753 -0.0006154325061335 0.0
0.0033503131375556988 -0.00023938561115965625 0.0
0.000210080797618644 -0.00021834400553511933 0.0
0.003487936597302928 2.168618810880368e-5 0.0
0.00010030615842414428 1.6756577823469645e-5 0.0
0.0035707128623809333 -2.0602586542037796e-5 0.0
2.977102662141958e-5 -2.4976273782200618e-5 0.0
0.0025162238199266224 7.778008124180064e-5 0.0
0.0011682508108118268 0.00022785800637284583 0.0
0.0034420608331976487 4.0307094053402204e-5 0.0
0.00014242267504104974 3.370073738866603e-5 0.0
5.0251964858704615e-5 -1.6177223530993785e-5 0.0
0.003546722906715195 -1.3601450183595338e-5 0.0
0.0020593517387244337 0.00012188834737355022 0.0
0.0015079414785801244 0.00016628718278934306 0.0
0.00011672146158305899 -0.0001261956556607414 0.0
0.0034668164279058923 -0.00013517890069013729 0.0
0.002446908858444045 -0.0007345835600505083 0.0
0.0019162330027959367 -0.0008248056291467455 0.0
0.0012893480735744866 -0.0007563110134162613 0.0
0.001020555173329813 -0.0006822511278562204 0.0
0.0020704938950533644 -0.0008149611061141794 0.0
0.0028229440675030383 -0.0005782513737996476 0.0
0.000674714306644257 -0.0005355006851637501 0.0
0.0030039455307131198 -0.0004811665584146181 0.0
0.000508896295778267 -0.00044274032396561487 0.0
0.0003594391700487835 -0.0003416232434333927 0.0
0.0031799820813596677 -0.00036869518005277276 0.0
0.0007301945118500169 0.0002614519032214171 0.0
0.002980601619213401 0.00017390615609563459 0.0
0.00357130920650823 -2.5279594134899373e-5 0.0
2.5908712455631532e-5 -2.561689322951474e-5 0.0
0.001134048250499172 0.0003145677884144989 0.0
0.002621173201425974 0.00011240221842212458 0.0
0.0001651019825871217 5.353330097199485e-5 0.0
0.0034373061957581057 5.025233995255004e-5 0.0
5.108617883194881e-5 -5.658015743586156e-5 0.0
0.0035409100215784695 -6.150646078194724e-5 0.0
0.002795932975531261 0.00018187001208753295 0.0
0.0028480133829406487 0.00015379265256618954 0.0
0.0030725197499346353 0.00012922071432023316 0.0
0.0029424301238037396 0.00013756380550145059 0.0
0.0027680563361650555 0.0001425355628466229 0.0
0.0028304133255791964 0.00014474974899002433 0.0
0.0029978466690558534 0.00012908325326813126 0.0
0.0028934131222983672 0.00013937770997989653 0.0
0.0030514819707921806 0.00011750720224653634 0.0
0.0029557097823163453 0.0001259528919174935 0.0
0.002807606773596176 0.00014440740697163395 0.0
0.0028652572000014147 0.0001292232445773799 0.0
0.002738088727286247 0.0001439838760521215 0.0
0.00278507042575197 0.00012694885858150913 0.0
0.0026696505415884754 0.0001396186916958381 0.0
0.002712180026989156 0.00011911237641063288 0.0
0.001875336420390294 8.089110960708228e-5 0.0
0.0017671110605086652 6.340383330442983e-5 0.0
0.0018505983062976454 5.47950168305464e-5 0.0
0.0017627379230769793 4.220895670160346e-5 0.0
0.0018359786272457135 3.488389475020406e-5 0.0
0.0017602264443539995 2.5161208884387413e-5 0.0
0.0018264740628773104 1.8036884610180963e-5 0.0
0.0017578000292772127 9.502829783960127e-6 0.0
0.0018194949680811873 2.7421975064599235e-6 0.0
0.0017556956199326825 -5.079894436026615e-6 0.0
0.0018141461415832228 -1.1459322672632344e-5 0.0
0.0017539647285112357 -1.883698596270562e-5 0.0
0.001809937425704129 -2.5331174456501486e-5 0.0
0.0017540294967243015 -3.22727772301441e-5 0.0
0.0018065810822934054 -3.8734605482747055e-5 0.0
0.0017527067542928664 -4.5503539757859144e-5 0.0
0.0018034979857893632 -5.186439472562993e-5 0.0
0.0017497231960757677 -5.854165875249104e-5 0.0
0.0018004491396206611 -6.489156805750025e-5 0.0
0.00174804849528141 -7.14372657124924e-5 0.0
0.001797838742005611 -7.789424256829246e-5 0.0
0.0017466079248369853 -8.435122235380474e-5 0.0
0.0017938122804582394 -9.084307951106459e-5 0.0
0.0017448806733504924 -9.735921114667725e-5 0.0
0.001791247251247396 -0.00010391520125975689 0.0
0.0017440841331155157 -0.00011015884861249996 0.0
0.0017889826094132013 -0.00011709551897665087 0.0
0.0017401856467455252 -0.0001225776108748006 0.0
0.0017862118779613469 -0.0001303833742007781 0.0
0.0017271995680151202 -0.00013609361638977752 0.0
0.0017865861280519802 -0.0001441194621141011 0.0
0.0017367176583748694 -0.0001506832575419092 0.0
0.001784027997177872 -0.00015793949022793993 0.0
0.0017368099361932724 -0.00016485572979074242 0.0
0.0017822407533654872 -0.00017216297006404698 0.0
0.0017382111427804417 -0.0001791817495210465 0.0
0.0017802561765383194 -0.00018663255050949674 0.0
0.00173736064071362 -0.000194037880879839 0.0
0.0016977381098641484 3.191493271250483e-6 0.0
0.0017782331520986704 -0.00020151196340535829 0.0
0.001697162823669648 -6.427059002618369e-5 0.0
0.001682709822274378 -0.0001470339857131324 0.0
0.0017330294133656116 -0.00020906318075474537 0.0
0.001775869222076067 -0.00021677567113653637 0.0
0.0017287512350656622 -0.00022502974355807372 0.0
0.0016866566400947965 -0.00021583833586437783 0.0
0.0016812174266197372 -0.00023257292994144436 0.0
0.001771729424212943 -0.00023337824619651837 0.0
0.0018194545395409788 -0.00022453130193182054 0.0
0.0018294116673223239 -0.00015048970961608834 0.0
0.0018155900361634702 -0.00024162183506519863 0.0
0.0018662471869973372 -0.00023111391593264307 0.0
0.0018607088822322477 -0.00024979761114735886 0.0
0.001639583549614469 -0.00022293070049700855 0.0
0.0016358460396145118 -0.0002393279040132073 0.0
0.0019129361564622321 -0.00023835255433029648 0.0
0.0015915593498845872 -0.00022914425144418435 0.0
0.001590535026819353 -0.0002463302973154553 0.0
0.0019082498362088976 -0.0002572699676659315 0.0
0.00195882047551234 -0.0002466861380742826 0.0
0.0015431991833704019 -0.00023543700954004602 0.0
0.0015410399492735336 -0.00025311980941280924 0.0
0.0019552183308652214 -0.000265495083412141 0.0
0.002007205069895077 -0.00025426172303583946 0.0
0.0014950385543088757 -0.00024168063648843073 0.0
0.001492424179663484 -0.0002604010530532695 0.0
0.002003444764099539 -0.0002740574841599368 0.0
0.002056825497445786 -0.00026169985156203844 0.0
0.0014472619411694185 -0.0002469086380326309 0.0
0.0014414732403678315 -0.00026618047942426827 0.0
0.002053689642285568 -0.0002820099298189433 0.0
0.0021073616632377506 -0.00026893288058192616 0.0
0.0013947653090883665 -0.00025209140000129166 0.0
0.0013902293655644476 -0.000272432364687384 0.0
0.0013407969632551757 -0.0002584311298019139 0.0
0.0013451283665923005 -0.00023689980714784666 0.0
0.001995340727529596 -0.00029358119793337965 0.0
0.0021039385453032224 -0.0002900544699750098 0.0
0.0021586814789157274 -0.0002760100169917956 0.0
0.0021629886465580105 -0.00025431219394490514 0.0
0.0018418465552642318 -8.475450341788441e-5 0.0
0.0022163841779839163 -0.00026096293007552365 0.0
0.0022211480236556643 -0.00023843065959564105 0.0
0.002276269022505941 -0.00024432588513710444 0.0
0.0013404357711196146 -0.00028037917120596605 0.0
0.0012888241053867207 -0.00026400438239813847 0.0
0.001388952644787978 -0.0002942695632498672 0.0
0.00215363832311287 -0.00029825417947815724 0.0
0.0012891199819232274 -0.0002864984937218268 0.0
0.0012369209457964085 -0.0002688621982019562 0.0
0.001863515380174818 -3.074600232515922e-5 0.0
0.0012370834454249473 -0.00029085784856564386 0.0
0.0011849679779045359 -0.00027291557931689343 0.0
0.0011853308430346456 -0.00029541796070500044 0.0
0.0011339269837039696 -0.0002758199187667235 0.0
0.0011324431651397447 -0.000253878132414249 0.0
0.0010783599475335359 -0.00025735619953064616 0.0
0.0010776916462368641 -0.00023418715765515205 0.0
0.0011282005822177725 -0.0002979987343363686 0.0
0.0010196237433482277 -0.0002378777007131589 0.0
0.001018536750853643 -0.00021415111971252382 0.0
0.0011861659477131578 -0.00031920079729986915 0.0
0.0011376004685393314 -0.000323645470712965 0.0
0.0009618410274508148 -0.00021597474852787636 0.0
0.0009588323422069992 -0.0001928337993310006 0.0
0.0022825991944985706 -0.00022149257810135764 0.0
0.002339949628068861 -0.00022703418437919557 0.0
0.0011869290982037322 -0.00034326911886798023 0.0
0.0011389993012818189 -0.0003475364006501077 0.0
0.002346959987061383 -0.00020347344945273975 0.0
0.0024070890962601716 -0.00020915004592689043 0.0
0.0023974718508731623 -0.00023498237710764316 0.0
0.0024650614704147976 -0.00021564062119202156 0.0
0.0024564359753951616 -0.00024205451697219016 0.0
0.002524094795504771 -0.00022063336436885489 0.0
0.002518728870955829 -0.00024676474742643044 0.0
0.0025886505940305848 -0.00022257843832113947 0.0
0.0025773471096940895 -0.0002492785974695139 0.0
0.0025940114032082626 -0.00019752309009115566 0.0
0.0026482751573833206 -0.00022542803415073737 0.0
0.002633210381136071 -0.0002519910763276047 0.0
0.001188284243313553 -0.00036778012428832665 0.0
0.000899111887621047 -0.00019403437122063005 0.0
0.0008949732138278539 -0.0001705147125461417 0.0
0.0025681132256463097 -0.00027657936483888696 0.0
0.0026216735678982355 -0.00027880189725594344 0.0
0.0026857110803475744 -0.0002537877459761899 0.0
0.0025611414491192737 -0.0003043380208230637 0.0
0.0011415058096022534 -0.00037217877799012195 0.0
0.002674150155427087 -0.0002800723785896546 0.0
0.002736790294703325 -0.00025437637389461064 0.0
0.0011895554117345862 -0.0003929732611703221 0.0