# vtk DataFile Version 2.0
phase field modeling fracture
ASCII
DATASET UNSTRUCTURED_GRID
POINTS 2538 float
0.0 0.0 0.0
10.0 0.0 0.0
0.0 10.0 0.0
10.0 10.0 0.0
0.0 4.9995 0.0
0.0 5.0005 0.0
5.0 5.0 0.0
0.9416964895726688 0.0 0.0
1.803581725054446 0.0 0.0
2.592419885431098 0.0 0.0
3.314401822861676 0.0 0.0
3.975193910351406 0.0 0.0
4.579982132660152 0.0 0.0
5.133512780936812 0.0 0.0
5.640130319506143 0.0 0.0
6.103810708661955 0.0 0.0
6.528192895506818 0.0 0.0
6.916607540127679 0.0 0.0
7.272102969376355 0.0 0.0
7.597469242948583 0.0 0.0
7.895259826292669 0.0 0.0
8.167811885738017 0.0 0.0
8.417264413845215 0.0 0.0
8.645575169389538 0.0 0.0
8.854535961159101 0.0 0.0
9.045786767735546 0.0 0.0
9.220828555767493 0.0 0.0
9.38103509633881 0.0 0.0
9.527663687265145 0.0 0.0
9.661865124984566 0.0 0.0
9.784692609918062 0.0 0.0
9.897110148790482 0.0 0.0
10.0 0.09999999999992584 0.0
10.0 0.199999999999856 0.0
10.0 0.2999999999997771 0.0
10.0 0.3999999999996677 0.0
10.0 0.4999999999995511 0.0
10.0 0.5999999999994683 0.0
10.0 0.6999999999993983 0.0
10.0 0.7999999999993286 0.0
10.0 0.8999999999992587 0.0
10.0 0.9999999999991888 0.0
10.0 1.099999999999119 0.0
10.0 1.199999999999033 0.0
10.0 1.299999999998852 0.0
10.0 1.399999999998576 0.0
10.0 1.499999999998284 0.0
10.0 1.599999999997992 0.0
10.0 1.6999999999977 0.0
10.0 1.799999999997408 0.0
10.0 1.899999999997116 0.0
10.0 1.999999999996825 0.0
10.0 2.099999999996533 0.0
10.0 2.199999999996241 0.0
10.0 2.299999999995949 0.0
10.0 2.399999999995657 0.0
10.0 2.499999999995365 0.0
10.0 2.599999999995073 0.0
10.0 2.699999999994782 0.0
10.0 2.79999999999449 0.0
10.0 2.899999999994198 0.0
10.0 2.999999999993906 0.0
10.0 3.099999999993614 0.0
10.0 3.199999999993322 0.0
10.0 3.299999999993029 0.0
10.0 3.399999999992738 0.0
10.0 3.499999999992446 0.0
10.0 3.599999999992154 0.0
10.0 3.699999999991863 0.0
10.0 3.799999999991571 0.0
10.0 3.899999999991278 0.0
10.0 3.999999999991022 0.0
10.0 4.099999999991035 0.0
10.0 4.199999999991187 0.0
10.0 4.299999999991338 0.0
10.0 4.399999999991491 0.0
10.0 4.499999999991642 0.0
10.0 4.599999999991795 0.0
10.0 4.699999999991947 0.0
10.0 4.799999999992099 0.0
10.0 4.89999999999225 0.0
10.0 4.999999999992403 0.0
10.0 5.099999999992555 0.0
10.0 5.199999999992706 0.0
10.0 5.299999999992858 0.0
10.0 5.39999999999301 0.0
10.0 5.499999999993161 0.0
10.0 5.599999999993313 0.0
10.0 5.699999999993466 0.0
10.0 5.799999999993618 0.0
10.0 5.899999999993771 0.0
10.0 5.999999999993922 0.0
10.0 6.099999999994074 0.0
10.0 6.199999999994227 0.0
10.0 6.299999999994378 0.0
10.0 6.39999999999453 0.0
10.0 6.499999999994682 0.0
10.0 6.599999999994833 0.0
10.0 6.699999999994986 0.0
10.0 6.799999999995138 0.0
10.0 6.899999999995289 0.0
10.0 6.999999999995442 0.0
10.0 7.099999999995594 0.0
10.0 7.199999999995747 0.0
10.0 7.299999999995897 0.0
10.0 7.39999999999605 0.0
10.0 7.499999999996202 0.0
10.0 7.599999999996353 0.0
10.0 7.699999999996505 0.0
10.0 7.799999999996658 0.0
10.0 7.899999999996808 0.0
10.0 7.999999999996962 0.0
10.0 8.099999999997113 0.0
10.0 8.199999999997265 0.0
10.0 8.299999999997418 0.0
10.0 8.399999999997569 0.0
10.0 8.499999999997721 0.0
10.0 8.599999999997873 0.0
10.0 8.699999999998024 0.0
10.0 8.799999999998176 0.0
10.0 8.899999999998329 0.0
10.0 8.99999999999848 0.0
10.0 9.099999999998634 0.0
10.0 9.199999999998786 0.0
10.0 9.299999999998937 0.0
10.0 9.399999999999089 0.0
10.0 9.499999999999241 0.0
10.0 9.599999999999392 0.0
10.0 9.699999999999545 0.0
10.0 9.799999999999697 0.0
10.0 9.899999999999848 0.0
9.897110148790565 10.0 0.0
9.784692609918244 10.0 0.0
9.66186512498486 10.0 0.0
9.527663687265571 10.0 0.0
9.381035096339392 10.0 0.0
9.220828555768257 10.0 0.0
9.045786767736512 10.0 0.0
8.854535961160305 10.0 0.0
8.645575169391027 10.0 0.0
8.417264413847017 10.0 0.0
8.167811885740178 10.0 0.0
7.895259826295246 10.0 0.0
7.597469242951631 10.0 0.0
7.272102969379938 10.0 0.0
6.916607540131873 10.0 0.0
6.528192895511704 10.0 0.0
6.103810708667616 10.0 0.0
5.640130319512691 10.0 0.0
5.13351278094435 10.0 0.0
4.579982132668816 10.0 0.0
3.975193910361222 10.0 0.0
3.314401822869852 10.0 0.0
2.592419885437257 10.0 0.0
1.803581725058137 10.0 0.0
0.9416964895740705 10.0 0.0
0.0 9.00010000000243 0.0
0.0 8.000200000005481 0.0
0.0 7.000300000005135 0.0
0.0 6.000400000002569 0.0
0.901790731451151 5.000409820926855 0.0
1.657200899774397 5.000334279910023 0.0
2.289991063707192 5.000271000893629 0.0
2.820065163538221 5.000217993483646 0.0
3.264096435579811 5.000173590356442 0.0
3.636051481595835 5.00013639485184 0.0
3.947629914072366 5.000105237008593 0.0
4.208632181002628 5.0000791367819 0.0
4.427267949625672 5.000057273205037 0.0
4.610414277633563 5.000038958572237 0.0
4.763831845154243 5.000023616815485 0.0
4.892346298799659 5.00001076537012 0.0
4.892346298799748 4.99998923462988 0.0
4.763831845154455 4.999976383184515 0.0
4.610414277633943 4.999961041427763 0.0
4.427267949626277 4.999942726794963 0.0
4.208632181003523 4.9999208632181 0.0
3.94762991407365 4.999894762991407 0.0
3.636051481597624 4.99986360514816 0.0
3.264096435582253 4.999826409643559 0.0
2.820065163541503 4.999782006516354 0.0
2.289991063711534 4.999728999106371 0.0
1.657200899778495 4.999665720089978 0.0
0.9017907314530094 4.999590179073145 0.0
0.0 3.999600000002013 0.0
0.0 2.999700000005187 0.0
0.0 1.99980000000512 0.0
0.0 0.9999000000025537 0.0
9.897889398521345 2.93573355845387 0.0
9.906568249974548 7.060009441434234 0.0
9.913122631074113 3.64016132281653 0.0
9.922462129543863 6.354535290629151 0.0
9.917693659967533 4.354211663134567 0.0
9.909873057440208 5.637584487339942 0.0
9.914183254994697 4.950672966925282 0.0
9.913885043715895 7.666887930262611 0.0
9.91009668007573 2.351889069770817 0.0
9.905135696074536 8.138152454502785 0.0
9.913397459621809 1.849999999997262 0.0
7.099302372137626 0.297750452375005 0.0
7.095143729410097 9.700359990366296 0.0
4.942912558701401 5.095838627899509 0.0
4.315009232304429 5.165022115481685 0.0
4.946182472483878 4.906763777264103 0.0
4.317967462990024 4.825955043772673 0.0
9.916390871492647 8.64999999999792 0.0
9.921504649680616 1.368376469890358 0.0
8.292538149791614 0.206877570318844 0.0
8.292538149793597 9.793122429681448 0.0
5.884594439766573 9.587645267048616 0.0
5.794826292691579 0.3794853783929359 0.0
9.913397459621425 9.049999999998557 0.0
9.908526577714177 0.9568239351922434 0.0
3.456851160380649 5.315740054130451 0.0
3.457889657868442 4.707121019609468 0.0
8.945214200703926 0.1503383337970344 0.0
8.950161364448409 9.8413906539257 0.0
9.913862335499305 4.055887885208452 0.0
9.916697353372683 4.650158482607802 0.0
9.919076340414442 6.049999999994006 0.0
9.906994308667635 5.25749687748192 0.0
9.917490342358025 6.655979201891897 0.0
9.915757520293784 7.343848891656911 0.0
9.910049507471042 3.363474386285078 0.0
9.914471988502868 2.647400064832979 0.0
9.91474124160965 9.337490423485129 0.0
9.916971008170838 0.6499999999994355 0.0
4.307157269264427 9.509674045029644 0.0
4.331527375865619 0.4401616696422582 0.0
9.45434939180249 9.878397030523757 0.0
9.457696120412969 0.1270877537061785 0.0
2.555070293622606 5.422044496190925 0.0
2.566232917480916 4.608001224030952 0.0
3.026511860837692 9.332320638257093 0.0
2.945561971800619 0.5895662714727601 0.0
7.7395404387124 0.2511088946967771 0.0
7.736379255744154 9.745848826372828 0.0
4.687135269408529 5.122111433928926 0.0
4.688420821504113 4.871895064967488 0.0
9.910554884115975 0.3448356354522978 0.0
9.911230082250466 9.65764729394159 0.0
9.921953841410854 6.851023993342036 0.0
9.912065178606017 5.448170483544033 0.0
9.911660025326261 3.861846960030188 0.0
9.914847467973438 3.14501593945607 0.0
9.913397459621425 5.849999999993703 0.0
9.913397459621425 7.849999999996735 0.0
9.906916878988277 2.15455769998631 0.0
9.913397459621425 8.349999999997479 0.0
9.909472363117661 1.640528221515488 0.0
9.913987325695956 1.152857110636247 0.0
9.913397459621425 8.849999999998241 0.0
0.9100099990995943 2.614215977520411 0.0
0.8395284981715456 7.451196254860987 0.0
9.723278867451556 9.898135916635193 0.0
9.723316350887044 0.09841820909386662 0.0
1.385819164827588 4.454539963646463 0.0
1.338343629665047 5.523111536005823 0.0
1.377179700550677 0.6809168304959698 0.0
1.418060461092743 9.285896715136046 0.0
9.91268220142518 0.1457914080939694 0.0
9.906737126737994 9.845745933882352 0.0
0.7108351382691361 6.537941170074089 0.0
1.527735020267026 6.915620208855231 0.0
1.630993885659103 7.838271825205868 0.0
2.232760943566823 7.370850737296832 0.0
2.243414218068206 6.688299277952821 0.0
2.779655053105118 7.021588754814074 0.0
2.80227799359795 7.632420170547022 0.0
3.282022065908813 7.305859666021318 0.0
3.327597298795347 7.857554136825748 0.0
3.743210251018715 7.549183328204379 0.0
3.716353232200752 7.062036086888612 0.0
4.111978858674101 7.27497101169417 0.0
4.104192177581432 6.879858986267289 0.0
4.436230765617037 7.045693351607117 0.0
4.430360014817357 6.703971783962796 0.0
4.732390145036301 6.849841042423394 0.0
5.056161327708878 5.095276573498806 0.0
5.111586796021131 4.999081142133581 0.0
5.169267363407189 5.09444870412406 0.0
5.223795108752053 4.996986220359468 0.0
5.281480803887719 5.092780870372803 0.0
5.335670761900611 4.994887492556936 0.0
5.393485214772442 5.090486192743301 0.0
5.447323082877892 4.992601527033996 0.0
5.505243219343024 5.087953380710069 0.0
5.558739102026105 4.990287787962959 0.0
5.616491581184779 5.085335255235766 0.0
5.669852346908056 4.9879269227514 0.0
5.727502713908907 5.082679981817038 0.0
5.780766004135139 4.988313988715834 0.0
5.838244881129535 5.080480568766611 0.0
5.891357695677371 4.986433849408193 0.0
5.948696036767613 5.077969900389505 0.0
6.001601341641615 4.981313698556656 0.0
6.058851024265095 5.074871552128682 0.0
6.111614020704875 4.978360695880202 0.0
6.168801161530775 5.072044953270978 0.0
6.221368818778567 4.975825765213497 0.0
6.278268309066882 5.066182320461055 0.0
6.330814273567539 4.972837984645718 0.0
6.387565032421376 5.062889771971895 0.0
6.437476667631405 4.971693683589553 0.0
[...]
POINT_DATA 2538
VECTORS disp float
7.534952177590893e-12 8.303039750237364e-12 0.0
-9.524244365165901e-14 -1.1101491181028087e-12 0.0
0.0007000000000756597 9.466426623511962e-13 0.0
0.0006999999805577322 -2.607442719012226e-11 0.0
0.0003702277279041263 0.00019483223520214284 0.0
0.0005378855835369739 -7.478965905111101e-6 0.0
0.000430505744483478 -3.952637768685151e-5 0.0
-1.7407733997263422e-12 -2.092681077502593e-12 0.0
5.364578121676296e-13 6.517236755053618e-13 0.0
1.9669503804379774e-13 -6.553754141695851e-13 0.0
7.070171954071328e-14 -4.2196060849769857e-13 0.0
-1.726276571811853e-14 -6.884715515489528e-13 0.0
4.0915234720878264e-14 -9.093984115665455e-13 0.0
3.748569679233911e-14 -1.0010492928663611e-12 0.0
6.423003628622316e-14 -1.037878555030477e-12 0.0
6.655148201800413e-14 -1.0500998425123838e-12 0.0
6.421939896528198e-14 -1.0551705669507458e-12 0.0
6.354641814373753e-14 -1.0758201442707837e-12 0.0
5.702793868546603e-14 -1.077768963594193e-12 0.0
6.069442234139193e-14 -1.07805533808195e-12 0.0
5.1779492288079063e-14 -1.1213235476765968e-12 0.0
6.715711910275423e-14 -1.0911492739103643e-12 0.0
8.580669920973043e-14 -1.1034063213126889e-12 0.0
7.939578926006736e-14 -1.109094127893742e-12 0.0
9.967015436722465e-14 -1.0688434664905597e-12 0.0
9.646028308933441e-14 -1.1385318828295754e-12 0.0
9.730245820687227e-14 -1.21676156450442e-12 0.0
1.0840785506274871e-13 -1.2780975774090684e-12 0.0
9.829100485166307e-14 -1.3297533662141334e-12 0.0
9.963700039700246e-14 -1.3104798540203995e-12 0.0
7.71650550986483e-14 -1.1906096997309552e-12 0.0
2.7203055424340415e-13 -6.74887843675113e-13 0.0
6.9057563191494705e-6 -3.6608630490073203e-7 0.0
1.307959591409661e-5 -9.049919725573558e-7 0.0
1.8649646251997134e-5 -1.440799318584308e-6 0.0
2.4148884976295567e-5 -2.044438552962794e-6 0.0
2.950959912266903e-5 -2.760171127361523e-6 0.0
3.472467900342751e-5 -3.6169647803848316e-6 0.0
3.974868776657164e-5 -4.490008504573658e-6 0.0
4.451453838415388e-5 -5.470583723052943e-6 0.0
4.922342137059882e-5 -6.5240097905114926e-6 0.0
5.391402981118827e-5 -7.580740980857983e-6 0.0
5.859315470254956e-5 -8.714171885676646e-6 0.0
6.337886264033915e-5 -9.876683637829155e-6 0.0
6.842880124910277e-5 -1.103472811876511e-5 0.0
7.371134606026555e-5 -1.2255434609504596e-5 0.0
7.918026398203244e-5 -1.3541414511135422e-5 0.0
8.500114250723883e-5 -1.4795299537123129e-5 0.0
9.119879077062412e-5 -1.605420227579904e-5 0.0
9.79299027640996e-5 -1.7301580137597513e-5 0.0
0.00010502581302384007 -1.8560431265961648e-5 0.0
0.00011236036747552698 -1.9816271193892587e-5 0.0
0.00011981171328284544 -2.1093663833900392e-5 0.0
0.00012738232755294283 -2.2379439009043962e-5 0.0
0.00013513613269451879 -2.371222326577724e-5 0.0
0.0001430032374233624 -2.500590819291094e-5 0.0
0.00015097529722325433 -2.634434437283784e-5 0.0
0.00015897776678408534 -2.7650132128233865e-5 0.0
0.00016705475804908664 -2.8981149713336735e-5 0.0
0.00017530073977626892 -3.0275207990214187e-5 0.0
0.00018343496617043734 -3.162782534694867e-5 0.0
0.00019151622884953923 -3.2977609412202945e-5 0.0
0.00019981859582999777 -3.4338874059819947e-5 0.0
0.000208355573644041 -3.567913716576981e-5 0.0
0.0002170739161346586 -3.7036177589982625e-5 0.0
0.0002262013532635565 -3.83882803358939e-5 0.0
0.0002363928868438006 -3.97570170609306e-5 0.0
0.00024765077008350876 -4.105377239828409e-5 0.0
0.00025928115087048536 -4.2255253797968706e-5 0.0
0.00026943373813673237 -4.330385571453268e-5 0.0
0.00027762037707174033 -4.446872959217826e-5 0.0
0.00028463396215781583 -4.550143802453374e-5 0.0
0.0002900111584597301 -4.650257299790093e-5 0.0
0.0002940276318440317 -4.7521353914092254e-5 0.0
0.00029892025998963935 -4.8058661662412936e-5 0.0
0.0003028574615244372 -4.892285193672065e-5 0.0
0.0003065041262237904 -5.013639905630832e-5 0.0
0.0003106326710460464 -5.141847601288012e-5 0.0
0.0003148003113385891 -5.288956073890156e-5 0.0
0.00031882334861146243 -5.4300239732252155e-5 0.0
0.00032332140164888066 -5.65079565688013e-5 0.0
0.00032820012646735385 -5.8608788509215365e-5 0.0
0.00033315122627600527 -6.048486063963953e-5 0.0
0.00033839949221687606 -6.224736892590118e-5 0.0
0.0003437048865909296 -6.403657216979542e-5 0.0
0.0003492652082098676 -6.585392861850583e-5 0.0
0.0003547426679481006 -6.712295294148696e-5 0.0
0.0003618605803035946 -6.794148501093683e-5 0.0
0.000369402838169584 -6.856457719739577e-5 0.0
0.00037698000231526903 -6.926447394653666e-5 0.0
0.00038424052433036926 -6.996128821894107e-5 0.0
0.0003913018050761722 -7.062551500010668e-5 0.0
0.00039846598895723867 -7.133553195569913e-5 0.0
0.0004058214570385246 -7.183143854728484e-5 0.0
0.00041313936683698313 -7.211557130920994e-5 0.0
0.00042005655039229866 -7.247099984798799e-5 0.0
0.00042689785017861525 -7.294450149245607e-5 0.0
0.00043363234051396873 -7.338826739869231e-5 0.0
0.0004402158584068152 -7.381406646052307e-5 0.0
0.0004467607513681573 -7.426279532228154e-5 0.0
0.00045343700780330726 -7.471366553675178e-5 0.0
0.0004602422828596712 -7.525991701011267e-5 0.0
0.0004670873436349379 -7.583495779176267e-5 0.0
0.0004741929975279493 -7.646670076136394e-5 0.0
0.00048137083781080945 -7.717480516697423e-5 0.0
0.0004883668022626285 -7.739855342833869e-5 0.0
0.000495918544270985 -7.763052170163991e-5 0.0
0.0005033760537885635 -7.814274465919029e-5 0.0
0.0005113020055149868 -7.832645939740931e-5 0.0
0.000519281272199424 -7.812515359851764e-5 0.0
0.0005273267962143817 -7.780008403737818e-5 0.0
0.0005351964941053644 -7.735289224738898e-5 0.0
0.0005430203962475906 -7.69477823344398e-5 0.0
0.0005503483526502274 -7.65688401714887e-5 0.0
0.0005572529852732902 -7.625774256059035e-5 0.0
0.0005636940873983546 -7.602394117624824e-5 0.0
0.0005696088536461226 -7.584181106675574e-5 0.0
0.0005753530302294652 -7.574335981258409e-5 0.0
0.0005811276373100233 -7.555421369451734e-5 0.0
0.0005864239081455864 -7.528478296940468e-5 0.0
0.0005916838558093311 -7.496794471655535e-5 0.0
0.000597596479677366 -7.438978568876124e-5 0.0
0.0006039975946148148 -7.331770933121833e-5 0.0
0.0006099281797140397 -7.162265191613421e-5 0.0
0.0006159541040908995 -6.945163929662863e-5 0.0
0.0006221616552722719 -6.6801772663353e-5 0.0
0.0006292473263424538 -6.356370293013551e-5 0.0
0.0006361338459001542 -5.885724213799174e-5 0.0
0.0006420678517434119 -5.138745068832437e-5 0.0
0.0006532849448009885 -4.3070464495739546e-5 0.0
0.000664322722991683 -2.9871492042297276e-5 0.0
0.0007000000031354897 2.952289007895951e-12 0.0
0.0006999999980966226 -2.422460009598336e-12 0.0
0.000699999999932681 6.150781112775531e-13 0.0
0.0006999999993959973 1.0214798559670078e-13 0.0
0.0006999999998153183 4.839171220546762e-13 0.0
0.0006999999997333354 6.521824311858971e-13 0.0
0.0006999999998243007 7.039422786379982e-13 0.0
0.0006999999998132603 7.513534670877902e-13 0.0
0.0006999999997828789 7.874549925706311e-13 0.0
0.0006999999997866335 7.744417388156032e-13 0.0
0.000699999999771563 7.851874234998868e-13 0.0
0.0006999999997647253 7.826645523814453e-13 0.0
0.0006999999997689601 8.011451454316219e-13 0.0
0.0006999999997655006 8.132270294650728e-13 0.0
0.0006999999997635485 8.181784520531875e-13 0.0
0.0006999999997489846 7.90969672949934e-13 0.0
0.0006999999997200976 7.417767113692966e-13 0.0
0.0006999999997087559 5.991544942195294e-13 0.0
0.0006999999995863039 5.439849527058967e-13 0.0
0.000699999999736295 4.978588132328876e-13 0.0
0.0006999999997183037 5.109198338383722e-13 0.0
0.000699999999676181 4.70943660930551e-13 0.0
0.0006999999998169511 4.490984967854727e-13 0.0
0.0006999999998526269 6.034537300670024e-13 0.0
0.000699999999948005 5.158802065415252e-13 0.0
0.0006614410363678022 1.035121344662396e-5 0.0
0.000628207283966604 1.1652083207353901e-5 0.0
0.000592859768342863 5.270275131364521e-6 0.0
0.0005615830976788375 -3.1202306847305673e-6 0.0
0.0005326464810910447 -3.163963240471257e-5 0.0
0.0005287768432604619 -4.658166915455673e-5 0.0
0.0005265166980018348 -6.203083711566764e-5 0.0
0.000522122992790516 -7.417803510591653e-5 0.0
0.0005163665318924834 -8.342602086680993e-5 0.0
0.0005089745820878339 -9.130283626673923e-5 0.0
0.0005014778563914093 -9.701062273538615e-5 0.0
0.0004928121661118613 -0.00010104012104839542 0.0
0.0004866680405810478 -0.00010316278060414183 0.0
0.000480844188314828 -9.832681403819173e-5 0.0
0.0004720974848935381 -8.763407984318502e-5 0.0
0.00045763659303459017 -7.138981517732922e-5 0.0
0.00042204392860615127 -2.4458643303884014e-5 0.0
0.00041559472579453345 -1.2626610544677225e-5 0.0
0.0004096216041951272 -1.2490890144071406e-6 0.0
0.0004034663170346761 1.0889348567910641e-5 0.0
0.0003969507747109865 2.264623623689999e-5 0.0
0.0003909930882243452 3.4922796252648765e-5 0.0
0.00038472740650554284 4.8731793627660386e-5 0.0
0.00037872757211200716 6.341784879158859e-5 0.0
0.00037412470984737027 8.279423184812571e-5 0.0
0.00037006535086954776 0.00010298304129170805 0.0
0.00036865893217837893 0.0001281103799655439 0.0
0.00036596727972488207 0.00015958836073600796 0.0
0.0003371909088185686 0.00019524340254838525 0.0
0.00028169676923402626 0.000196135323871612 0.0
0.00023438708593410206 0.00018726556695529523 0.0
0.00017688022694758296 0.00015022343644576443 0.0
0.00018563363444473003 -3.091771572109694e-5 0.0
0.0004639514091038004 -6.954191137753528e-5 0.0
0.00025181915667109956 -3.9632703755857974e-5 0.0
0.00041659096530539204 -6.703400683044164e-5 0.0
0.00030061430411325524 -4.8003309678046696e-5 0.0
0.000364340433778676 -6.212088962952426e-5 0.0
0.0003243806255432671 -5.4474769778201936e-5 0.0
0.000508586332013339 -7.149649606208275e-5 0.0
0.0001386360488761923 -2.4034874851984683e-5 0.0
0.0005459477705239638 -7.002863669413136e-5 0.0
0.00010092803341106355 -1.8309778183070405e-5 0.0
1.6197704845863493e-5 -2.501185924768068e-6 0.0
0.0006753948033305511 6.974048651987361e-7 0.0
0.00042889523401813147 -4.445147746333717e-5 0.0
0.000483466610550035 -9.774448972823205e-5 0.0
0.00040187571343914825 -2.944979441106082e-5 0.0
0.00037729320867786525 1.8549622401411576e-5 0.0
0.0005783260413396952 -6.913694982837883e-5 0.0
7.153266039348213e-5 -1.2991809811774036e-5 0.0
1.2081098629383086e-5 -1.8593187072968115e-6 0.0
0.0006831733613205163 5.028905624937252e-7 0.0
0.000665946456210049 2.5960229762546585e-7 0.0
1.9555273769065836e-5 -3.128229776817528e-6 0.0
0.0006014722858497894 -6.495592134911239e-5 0.0
5.134602819279148e-5 -8.742500155154194e-6 0.0
0.0005112556778695133 -8.143426057187599e-5 0.0
0.00035580500659888664 5.655367649741237e-5 0.0
9.450948487286754e-6 -1.26516106949287e-6 0.0
0.0006871913302830517 1.9822318855360465e-7 0.0
0.00028713696165630744 -4.5453065567067936e-5 0.0
0.00031180668592482646 -5.0850482906035874e-5 0.0
0.0003943472810049941 -6.513807482213945e-5 0.0
0.00033994734335891796 -5.8827081980419324e-5 0.0
0.0004370140097330385 -6.849168723219017e-5 0.0
0.00048432767792838986 -7.106330435072971e-5 0.0
0.0002222532012595771 -3.623000079334411e-5 0.0
0.00016223242047531277 -2.7596802612715914e-5 0.0
0.0006199391137721567 -5.784527500721791e-5 0.0
3.683001533984485e-5 -5.390793749998949e-6 0.0
0.0006642008380778597 -1.5304076977935336e-6 0.0
2.0932241820746162e-5 -2.1568557878836966e-6 0.0
0.0006883407317669296 -1.1935267417668395e-6 0.0
8.438329489750812e-6 -1.2389845580946985e-6 0.0
0.0005289280237093595 -6.421040254860927e-5 0.0
0.00034865265958324373 9.249184397268009e-5 0.0
0.0006600705660115012 -2.1938973413867356e-6 0.0
3.260233282822808e-5 2.099451218295013e-6 0.0
1.4067034978744882e-5 -2.1882280439379025e-6 0.0
0.0006792159208480677 5.656748604567475e-7 0.0
0.0004617694819962967 -8.6484340335828e-5 0.0
0.00039045356254540183 -5.836074499945207e-6 0.0
2.0871289922346558e-5 -2.522309907782753e-6 0.0
0.0006450179219039904 -4.071334342866981e-5 0.0
0.000449885708091176 -6.961226862134081e-5 0.0
0.0003510324526248719 -6.17110424144814e-5 0.0
0.0002739508445599951 -4.2645105208157225e-5 0.0
0.0002031136205712282 -3.372637935655483e-5 0.0
0.00038010011168905056 -6.34051201689451e-5 0.0
0.0005234360237248111 -7.128881021328955e-5 0.0
0.00012333762672748285 -2.173913337955159e-5 0.0
0.0005605051318980421 -7.00215005027364e-5 0.0
8.691548436604028e-5 -1.6019629966004658e-5 0.0
6.0562203364719535e-5 -1.0786126778970537e-5 0.0
0.0005892447484015955 -6.756149846701731e-5 0.0
0.0002514652303864083 0.00012129705911167999 0.0
0.0006000130011777296 -1.0577464266847789e-5 0.0
0.000686265657829996 -2.7771303019194383e-6 0.0
6.723516006358117e-6 -9.457037842017629e-7 0.0
0.0003448722178401574 0.00013988456475522314 0.0
0.0005406424950986367 -3.741340972815781e-5 0.0
4.274287010193862e-5 6.492560700831681e-6 0.0
0.0006695614023124513 -9.68712386411197e-8 0.0
9.705603011094272e-6 -9.239147122470804e-7 0.0
0.0006670679138457066 -1.8027883405085864e-5 0.0
0.0005711707447571478 -1.8098191743423133e-5 0.0
0.000571992461939459 -2.5966268698863667e-5 0.0
0.0006042797150619463 -1.4240383478055179e-5 0.0
0.0005753582436914586 -2.3869927304904702e-5 0.0
0.0005494885743855294 -3.772701288456828e-5 0.0
0.0005483517068642289 -3.298763564480524e-5 0.0
0.0005749789074239028 -2.1022413548157158e-5 0.0
0.0005491571298843967 -2.6517060932405613e-5 0.0
0.0005764695795679633 -1.7452627763067517e-5 0.0
0.000552358661986737 -2.1177897483869896e-5 0.0
0.0005272228490246206 -2.9845006789455486e-5 0.0
0.0005300614478528646 -2.3676668994995077e-5 0.0
0.0005083685818862344 -3.0807052484324495e-5 0.0
0.0005104515303198523 -2.485705747615309e-5 0.0
0.0004917550236059169 -3.053059740685474e-5 0.0
0.0004935013875855841 -2.342380851121333e-5 0.0
0.0004222208836897853 -3.043692825509588e-5 0.0
0.00042014769055660826 -3.0978052112533175e-5 0.0
0.00041615022579147634 -2.4341960748338605e-5 0.0
0.0004115923199263219 -2.6967740301436697e-5 0.0
0.0004101232708871887 -2.139032977115828e-5 0.0
0.00040487062261726324 -2.3452406542896432e-5 0.0
0.0004049386114446578 -1.8897262287321957e-5 0.0
0.0003992106711165933 -2.0831063628647806e-5 0.0
0.00040048684229914436 -1.7240164708184175e-5 0.0
0.0003940989906649788 -1.941892663740872e-5 0.0
0.0003962360747404653 -1.6307138789256107e-5 0.0
0.00038979774009441256 -1.8056764622452605e-5 0.0
0.00039240058310496145 -1.5354662817558223e-5 0.0
0.00038611406580907646 -1.665651744908409e-5 0.0
0.00038883315509728847 -1.4103254033333845e-5 0.0
0.00038252490184972985 -1.5339226047285636e-5 0.0
0.00038559221252994224 -1.318389083220632e-5 0.0
0.000378971445008121 -1.458640862748706e-5 0.0
0.0003824668450790335 -1.2532761575781603e-5 0.0
0.0003758889553034548 -1.3649777954909572e-5 0.0
0.00037954685515366747 -1.1737633639811667e-5 0.0
0.00037299198236966145 -1.2835191309815305e-5 0.0
0.00037659308909066577 -1.1127704351068624e-5 0.0
0.00037018519591735735 -1.2233186322720957e-5 0.0
0.00037390402623311967 -1.0719688546310107e-5 0.0
0.00036771298364367256 -1.1752615227546363e-5 0.0
0.00037131385154263866 -1.0257033454122966e-5 0.0
0.0003649968057028583 -1.1457877801670485e-5 0.0
0.0003687445303314082 -1.0012778311670511e-5 0.0
0.0003610936501245624 -1.1573602592400047e-5 0.0
0.00036656234571335884 -9.912096577767521e-6 0.0
0.00035989960312789827 -1.101815483006793e-5 0.0
0.0003642424477892693 -9.817098706130598e-6 0.0
0.0003577940831899507 -1.0982417365049823e-5 0.0
0.0003620366844000722 -9.910089293846326e-6 0.0
0.000355931743362109 -1.1052376521453388e-5 0.0
0.00035984260181123006 -1.011079775931433e-5 0.0
0.00035384564207397817 -1.1249637512980957e-5 0.0
0.00038915298055297766 -2.2722637309157545e-5 0.0
0.0003577221828027943 -1.0441352695045302e-5 0.0
0.00037124567357686044 -1.5729677242641258e-5 0.0
0.0003537228303861673 -1.2471814435274954e-5 0.0
0.00035144051042748214 -1.1691754523361227e-5 0.0
0.0003556225564801743 -1.0921330177853717e-5 0.0
0.0003490556423597132 -1.2258205767432131e-5 0.0
0.0003448389017612448 -1.2941427169757503e-5 0.0
0.00034227649753167306 -1.3584717827576386e-5 0.0
0.0003532565378830176 -1.156774905933097e-5 0.0
0.00035969318231632313 -1.0189991114116127e-5 0.0
0.00037011945152359713 -8.819071217914464e-6 0.0
0.00035742031245569294 -1.0933339901518857e-5 0.0
0.00036418509283006004 -9.445061015262404e-6 0.0
0.00036167889924696404 -1.0356786949895338e-5 0.0
0.00033795592883329833 -1.4187609642877665e-5 0.0
0.0003357220062749324 -1.4804666607285667e-5 0.0
0.00036862165039647547 -8.807187443321981e-6 0.0
0.0003308446372139658 -1.5373440512746143e-5 0.0
0.00032899314397438973 -1.598827781712227e-5 0.0
0.00036630668542862857 -9.783144928745667e-6 0.0
0.00037297003574703676 -8.32164413245441e-6 0.0
0.0003235192852677983 -1.648614213663601e-5 0.0
0.00032160570927553873 -1.7149567380559535e-5 0.0
0.0003709100979397011 -9.344368676812944e-6 0.0
0.00037784590715698524 -7.84871351814417e-6 0.0
0.0003160929915887788 -1.7475023031616244e-5 0.0
0.00031417925451945736 -1.822554486439553e-5 0.0
0.0003758319441613771 -9.017584827658081e-6 0.0
0.0003831733056857613 -7.478464626380085e-6 0.0
0.00030855606706977435 -1.835739134756041e-5 0.0
0.00030630918968581854 -1.913359968348535e-5 0.0
0.0003813323511662969 -8.739053444614391e-6 0.0
0.0003889636507694106 -7.183376626445472e-6 0.0
0.00030001429133824284 -1.9090139979477908e-5 0.0
0.0002980460836086686 -1.9903832220550593e-5 0.0
0.0002907389742034433 -1.9719120171580568e-5 0.0
0.0002926950717943715 -1.8988014772404445e-5 0.0
0.00037340645941117236 -1.036555662971618e-5 0.0
0.00038715983885954843 -8.581439588889518e-6 0.0
0.0003951838210481936 -6.975703087278839e-6 0.0
0.0003971003592808854 -5.605316851296257e-6 0.0
0.0003820531234056322 -1.0099321705126608e-5 0.0
0.000403811372743284 -5.3568202845219125e-6 0.0
0.00040577163358942303 -4.071715197133666e-6 0.0
0.00041294893025323686 -3.7544944908315622e-6 0.0
0.00028956394626496656 -2.062367516134019e-5 0.0
0.00028129960028730597 -2.0189417584020296e-5 0.0
0.0002966328787902395 -2.091121370285424e-5 0.0
0.0003932316426015725 -8.571943341032493e-6 0.0
0.00028037528528556695 -2.1114907368301478e-5 0.0
0.0002710253211923644 -2.0526305839651367e-5 0.0
0.00039428205280799575 -1.2893930001991717e-5 0.0
0.000270178908970269 -2.13709804746936e-5 0.0
0.0002596690297189003 -2.069035823231516e-5 0.0
0.0002588166126586326 -2.153679859536789e-5 0.0
0.0002476410852057631 -2.0759892297495226e-5 0.0
0.0002483566101387368 -1.9983432159126276e-5 0.0
0.00023516458506018658 -2.0075028479336894e-5 0.0
0.00023621409419261782 -1.9290066286493133e-5 0.0
0.0002452332754633418 -2.1612628721369413e-5 0.0
0.0002219854861007088 -1.934601037099458e-5 0.0
0.00022305583904251022 -1.860938185409941e-5 0.0
0.00025805921285551597 -2.2535437624772544e-5 0.0
0.0002463252413337949 -2.2695683148817143e-5 0.0
0.00020934285068551978 -1.855335253569765e-5 0.0
0.00020996982881320872 -1.7888159174637022e-5 0.0
0.00041504867816374765 -2.6364626000793627e-6 0.0
0.000422735118258241 -2.278977779987449e-6 0.0
0.00025732970376638457 -2.3600736164106746e-5 0.0
0.00024562424248589335 -2.3712899339950444e-5 0.0
0.0004248637138051765 -1.2778456845686018e-6 0.0
0.00043311080145433677 -8.897138655301583e-7 0.0
0.0004305931524739427 -2.1091888013960074e-6 0.0
0.00044129351831581067 -6.148074685868088e-7 0.0
0.0004390262706148734 -2.0350600045858342e-6 0.0
0.0004500430270137737 -3.991436297949903e-7 0.0
0.0004483746407403277 -1.9304838370110005e-6 0.0
0.00046009396720921004 -7.105270261828323e-8 0.0
0.00045754112762876357 -1.7973171264871668e-6 0.0
0.000461597938293993 1.0676440681837862e-6 0.0
0.00046972364650491483 1.291704475652306e-7 0.0
0.00046666639914378456 -1.8602265832030806e-6 0.0
0.00025677640230770176 -2.4698787173435897e-5 0.0
0.00019561688298699333 -1.774171289458295e-5 0.0
0.0001960095542521257 -1.7095908099594204e-5 0.0
0.0004553391012004647 -4.294067969845682e-6 0.0
0.00046418907544439465 -4.620180583985352e-6 0.0
0.00047568943113532227 -2.0089581267571688e-6 0.0
0.0004536325312156631 -7.4427301054057815e-6 0.0
0.0002451970523409865 -2.4778235002665808e-5 0.0
0.00047331571944308966 -5.157221007118788e-6 0.0
0.0004849441807123377 -2.2679934050202422e-6 0.0
0.00025622864529193745 -2.5850348061784803e-5 0.0