# vtk DataFile Version 2.0
phase field modeling fracture
ASCII
DATASET UNSTRUCTURED_GRID
POINTS 2538 float
0.0 0.0 0.0
10.0 0.0 0.0
0.0 10.0 0.0
10.0 10.0 0.0
0.0 4.9995 0.0
0.0 5.0005 0.0
5.0 5.0 0.0
0.9416964895726688 0.0 0.0
1.803581725054446 0.0 0.0
2.592419885431098 0.0 0.0
3.314401822861676 0.0 0.0
3.975193910351406 0.0 0.0
4.579982132660152 0.0 0.0
5.133512780936812 0.0 0.0
5.640130319506143 0.0 0.0
6.103810708661955 0.0 0.0
6.528192895506818 0.0 0.0
6.916607540127679 0.0 0.0
7.272102969376355 0.0 0.0
7.597469242948583 0.0 0.0
7.895259826292669 0.0 0.0
8.167811885738017 0.0 0.0
8.417264413845215 0.0 0.0
8.645575169389538 0.0 0.0
8.854535961159101 0.0 0.0
9.045786767735546 0.0 0.0
9.220828555767493 0.0 0.0
9.38103509633881 0.0 0.0
9.527663687265145 0.0 0.0
9.661865124984566 0.0 0.0
9.784692609918062 0.0 0.0
9.897110148790482 0.0 0.0
10.0 0.09999999999992584 0.0
10.0 0.199999999999856 0.0
10.0 0.2999999999997771 0.0
10.0 0.3999999999996677 0.0
10.0 0.4999999999995511 0.0
10.0 0.5999999999994683 0.0
10.0 0.6999999999993983 0.0
10.0 0.7999999999993286 0.0
10.0 0.8999999999992587 0.0
10.0 0.9999999999991888 0.0
10.0 1.099999999999119 0.0
10.0 1.199999999999033 0.0
10.0 1.299999999998852 0.0
10.0 1.399999999998576 0.0
10.0 1.499999999998284 0.0
10.0 1.599999999997992 0.0
10.0 1.6999999999977 0.0
10.0 1.799999999997408 0.0
10.0 1.899999999997116 0.0
10.0 1.999999999996825 0.0
10.0 2.099999999996533 0.0
10.0 2.199999999996241 0.0
10.0 2.299999999995949 0.0
10.0 2.399999999995657 0.0
10.0 2.499999999995365 0.0
10.0 2.599999999995073 0.0
10.0 2.699999999994782 0.0
10.0 2.79999999999449 0.0
10.0 2.899999999994198 0.0
10.0 2.999999999993906 0.0
10.0 3.099999999993614 0.0
10.0 3.199999999993322 0.0
10.0 3.299999999993029 0.0
10.0 3.399999999992738 0.0
10.0 3.499999999992446 0.0
10.0 3.599999999992154 0.0
10.0 3.699999999991863 0.0
10.0 3.799999999991571 0.0
10.0 3.899999999991278 0.0
10.0 3.999999999991022 0.0
10.0 4.099999999991035 0.0
10.0 4.199999999991187 0.0
10.0 4.299999999991338 0.0
10.0 4.399999999991491 0.0
10.0 4.499999999991642 0.0
10.0 4.599999999991795 0.0
10.0 4.699999999991947 0.0
10.0 4.799999999992099 0.0
10.0 4.89999999999225 0.0
10.0 4.999999999992403 0.0
10.0 5.099999999992555 0.0
10.0 5.199999999992706 0.0
10.0 5.299999999992858 0.0
10.0 5.39999999999301 0.0
10.0 5.499999999993161 0.0
10.0 5.599999999993313 0.0
10.0 5.699999999993466 0.0
10.0 5.799999999993618 0.0
10.0 5.899999999993771 0.0
10.0 5.999999999993922 0.0
10.0 6.099999999994074 0.0
10.0 6.199999999994227 0.0
10.0 6.299999999994378 0.0
10.0 6.39999999999453 0.0
10.0 6.499999999994682 0.0
10.0 6.599999999994833 0.0
10.0 6.699999999994986 0.0
10.0 6.799999999995138 0.0
10.0 6.899999999995289 0.0
10.0 6.999999999995442 0.0
10.0 7.099999999995594 0.0
10.0 7.199999999995747 0.0
10.0 7.299999999995897 0.0
10.0 7.39999999999605 0.0
10.0 7.499999999996202 0.0
10.0 7.599999999996353 0.0
10.0 7.699999999996505 0.0
10.0 7.799999999996658 0.0
10.0 7.899999999996808 0.0
10.0 7.999999999996962 0.0
10.0 8.099999999997113 0.0
10.0 8.199999999997265 0.0
10.0 8.299999999997418 0.0
10.0 8.399999999997569 0.0
10.0 8.499999999997721 0.0
10.0 8.599999999997873 0.0
10.0 8.699999999998024 0.0
10.0 8.799999999998176 0.0
10.0 8.899999999998329 0.0
10.0 8.99999999999848 0.0
10.0 9.099999999998634 0.0
10.0 9.199999999998786 0.0
10.0 9.299999999998937 0.0
10.0 9.399999999999089 0.0
10.0 9.499999999999241 0.0
10.0 9.599999999999392 0.0
10.0 9.699999999999545 0.0
10.0 9.799999999999697 0.0
10.0 9.899999999999848 0.0
9.897110148790565 10.0 0.0
9.784692609918244 10.0 0.0
9.66186512498486 10.0 0.0
9.527663687265571 10.0 0.0
9.381035096339392 10.0 0.0
9.220828555768257 10.0 0.0
9.045786767736512 10.0 0.0
8.854535961160305 10.0 0.0
8.645575169391027 10.0 0.0
8.417264413847017 10.0 0.0
8.167811885740178 10.0 0.0
7.895259826295246 10.0 0.0
7.597469242951631 10.0 0.0
7.272102969379938 10.0 0.0
6.916607540131873 10.0 0.0
6.528192895511704 10.0 0.0
6.103810708667616 10.0 0.0
5.640130319512691 10.0 0.0
5.13351278094435 10.0 0.0
4.579982132668816 10.0 0.0
3.975193910361222 10.0 0.0
3.314401822869852 10.0 0.0
2.592419885437257 10.0 0.0
1.803581725058137 10.0 0.0
0.9416964895740705 10.0 0.0
0.0 9.00010000000243 0.0
0.0 8.000200000005481 0.0
0.0 7.000300000005135 0.0
0.0 6.000400000002569 0.0
0.901790731451151 5.000409820926855 0.0
1.657200899774397 5.000334279910023 0.0
2.289991063707192 5.000271000893629 0.0
2.820065163538221 5.000217993483646 0.0
3.264096435579811 5.000173590356442 0.0
3.636051481595835 5.00013639485184 0.0
3.947629914072366 5.000105237008593 0.0
4.208632181002628 5.0000791367819 0.0
4.427267949625672 5.000057273205037 0.0
4.610414277633563 5.000038958572237 0.0
4.763831845154243 5.000023616815485 0.0
4.892346298799659 5.00001076537012 0.0
4.892346298799748 4.99998923462988 0.0
4.763831845154455 4.999976383184515 0.0
4.610414277633943 4.999961041427763 0.0
4.427267949626277 4.999942726794963 0.0
4.208632181003523 4.9999208632181 0.0
3.94762991407365 4.999894762991407 0.0
3.636051481597624 4.99986360514816 0.0
3.264096435582253 4.999826409643559 0.0
2.820065163541503 4.999782006516354 0.0
2.289991063711534 4.999728999106371 0.0
1.657200899778495 4.999665720089978 0.0
0.9017907314530094 4.999590179073145 0.0
0.0 3.999600000002013 0.0
0.0 2.999700000005187 0.0
0.0 1.99980000000512 0.0
0.0 0.9999000000025537 0.0
9.897889398521345 2.93573355845387 0.0
9.906568249974548 7.060009441434234 0.0
9.913122631074113 3.64016132281653 0.0
9.922462129543863 6.354535290629151 0.0
9.917693659967533 4.354211663134567 0.0
9.909873057440208 5.637584487339942 0.0
9.914183254994697 4.950672966925282 0.0
9.913885043715895 7.666887930262611 0.0
9.91009668007573 2.351889069770817 0.0
9.905135696074536 8.138152454502785 0.0
9.913397459621809 1.849999999997262 0.0
7.099302372137626 0.297750452375005 0.0
7.095143729410097 9.700359990366296 0.0
4.942912558701401 5.095838627899509 0.0
4.315009232304429 5.165022115481685 0.0
4.946182472483878 4.906763777264103 0.0
4.317967462990024 4.825955043772673 0.0
9.916390871492647 8.64999999999792 0.0
9.921504649680616 1.368376469890358 0.0
8.292538149791614 0.206877570318844 0.0
8.292538149793597 9.793122429681448 0.0
5.884594439766573 9.587645267048616 0.0
5.794826292691579 0.3794853783929359 0.0
9.913397459621425 9.049999999998557 0.0
9.908526577714177 0.9568239351922434 0.0
3.456851160380649 5.315740054130451 0.0
3.457889657868442 4.707121019609468 0.0
8.945214200703926 0.1503383337970344 0.0
8.950161364448409 9.8413906539257 0.0
9.913862335499305 4.055887885208452 0.0
9.916697353372683 4.650158482607802 0.0
9.919076340414442 6.049999999994006 0.0
9.906994308667635 5.25749687748192 0.0
9.917490342358025 6.655979201891897 0.0
9.915757520293784 7.343848891656911 0.0
9.910049507471042 3.363474386285078 0.0
9.914471988502868 2.647400064832979 0.0
9.91474124160965 9.337490423485129 0.0
9.916971008170838 0.6499999999994355 0.0
4.307157269264427 9.509674045029644 0.0
4.331527375865619 0.4401616696422582 0.0
9.45434939180249 9.878397030523757 0.0
9.457696120412969 0.1270877537061785 0.0
2.555070293622606 5.422044496190925 0.0
2.566232917480916 4.608001224030952 0.0
3.026511860837692 9.332320638257093 0.0
2.945561971800619 0.5895662714727601 0.0
7.7395404387124 0.2511088946967771 0.0
7.736379255744154 9.745848826372828 0.0
4.687135269408529 5.122111433928926 0.0
4.688420821504113 4.871895064967488 0.0
9.910554884115975 0.3448356354522978 0.0
9.911230082250466 9.65764729394159 0.0
9.921953841410854 6.851023993342036 0.0
9.912065178606017 5.448170483544033 0.0
9.911660025326261 3.861846960030188 0.0
9.914847467973438 3.14501593945607 0.0
9.913397459621425 5.849999999993703 0.0
9.913397459621425 7.849999999996735 0.0
9.906916878988277 2.15455769998631 0.0
9.913397459621425 8.349999999997479 0.0
9.909472363117661 1.640528221515488 0.0
9.913987325695956 1.152857110636247 0.0
9.913397459621425 8.849999999998241 0.0
0.9100099990995943 2.614215977520411 0.0
0.8395284981715456 7.451196254860987 0.0
9.723278867451556 9.898135916635193 0.0
9.723316350887044 0.09841820909386662 0.0
1.385819164827588 4.454539963646463 0.0
1.338343629665047 5.523111536005823 0.0
1.377179700550677 0.6809168304959698 0.0
1.418060461092743 9.285896715136046 0.0
9.91268220142518 0.1457914080939694 0.0
9.906737126737994 9.845745933882352 0.0
0.7108351382691361 6.537941170074089 0.0
1.527735020267026 6.915620208855231 0.0
1.630993885659103 7.838271825205868 0.0
2.232760943566823 7.370850737296832 0.0
2.243414218068206 6.688299277952821 0.0
2.779655053105118 7.021588754814074 0.0
2.80227799359795 7.632420170547022 0.0
3.282022065908813 7.305859666021318 0.0
3.327597298795347 7.857554136825748 0.0
3.743210251018715 7.549183328204379 0.0
3.716353232200752 7.062036086888612 0.0
4.111978858674101 7.27497101169417 0.0
4.104192177581432 6.879858986267289 0.0
4.436230765617037 7.045693351607117 0.0
4.430360014817357 6.703971783962796 0.0
4.732390145036301 6.849841042423394 0.0
5.056161327708878 5.095276573498806 0.0
5.111586796021131 4.999081142133581 0.0
5.169267363407189 5.09444870412406 0.0
5.223795108752053 4.996986220359468 0.0
5.281480803887719 5.092780870372803 0.0
5.335670761900611 4.994887492556936 0.0
5.393485214772442 5.090486192743301 0.0
5.447323082877892 4.992601527033996 0.0
5.505243219343024 5.087953380710069 0.0
5.558739102026105 4.990287787962959 0.0
5.616491581184779 5.085335255235766 0.0
5.669852346908056 4.9879269227514 0.0
5.727502713908907 5.082679981817038 0.0
5.780766004135139 4.988313988715834 0.0
5.838244881129535 5.080480568766611 0.0
5.891357695677371 4.986433849408193 0.0
5.948696036767613 5.077969900389505 0.0
6.001601341641615 4.981313698556656 0.0
6.058851024265095 5.074871552128682 0.0
6.111614020704875 4.978360695880202 0.0
6.168801161530775 5.072044953270978 0.0
6.221368818778567 4.975825765213497 0.0
6.278268309066882 5.066182320461055 0.0
6.330814273567539 4.972837984645718 0.0
6.387565032421376 5.062889771971895 0.0
6.437476667631405 4.971693683589553 0.0
[...]
POINT_DATA 2538
VECTORS disp float
1.255394926859389e-11 1.812541168549649e-11 0.0
2.866203676840006e-12 -7.896849015937817e-12 0.0
0.001400000000056827 2.2161284742290815e-12 0.0
0.001399999978256481 -4.59143715235153e-11 0.0
0.0006761301157234153 0.00031741640625827707 0.0
0.0010566238855388003 5.552542309537784e-6 0.0
0.0008136957471168127 -5.220791807239421e-5 0.0
-1.953186937401114e-12 -3.690480351735761e-12 0.0
1.331745620297809e-12 8.411571346246795e-13 0.0
6.841392926428072e-13 -1.1419700504025468e-12 0.0
7.414097860811362e-13 -8.195665004274607e-13 0.0
3.1130160076972893e-13 -7.850093882435039e-13 0.0
3.8489256274355e-13 -1.0955952452814015e-12 0.0
2.7654187676956705e-13 -1.1911210217638706e-12 0.0
2.345983301244199e-13 -1.483400592178473e-12 0.0
1.3007816614725113e-13 -1.7421809376818455e-12 0.0
2.671185442069682e-13 -2.0606297206819747e-12 0.0
2.596246915797309e-13 -2.292753236121768e-12 0.0
3.1436720976758425e-13 -2.492639090666757e-12 0.0
3.545485195379574e-13 -2.645499214735497e-12 0.0
3.343549196774947e-13 -2.689268530761683e-12 0.0
4.2099219365277297e-13 -2.847472096657372e-12 0.0
3.912014475777528e-13 -2.835464107060765e-12 0.0
3.990461992648473e-13 -2.9352496420331334e-12 0.0
4.830191458433881e-13 -2.979553785122191e-12 0.0
4.499378438331471e-13 -2.997353714621124e-12 0.0
4.869998574759292e-13 -3.074774889032283e-12 0.0
5.532649487696354e-13 -3.168628327314059e-12 0.0
5.748069214678067e-13 -3.289236313220399e-12 0.0
5.360748942592162e-13 -3.504727292789808e-12 0.0
8.006960380053066e-13 -3.8854844229825096e-12 0.0
1.6005646242573747e-13 -3.4393938381427486e-12 0.0
1.8088233941537217e-5 -7.540737530465499e-6 0.0
3.2726067709030356e-5 -1.386616853732149e-5 0.0
4.7272666340996775e-5 -1.9619495290900994e-5 0.0
6.12252175794065e-5 -2.512100794035999e-5 0.0
7.454907544917152e-5 -3.037991946271468e-5 0.0
8.751065313234582e-5 -3.555759316395938e-5 0.0
0.00010038519620642789 -4.047773716518323e-5 0.0
0.00011295132221085817 -4.5277246692279126e-5 0.0
0.00012534660391789538 -4.998791020879129e-5 0.0
0.0001376568111473599 -5.45393678585707e-5 0.0
0.00014980800808943776 -5.89973531590934e-5 0.0
0.00016202781207508578 -6.3331958073557e-5 0.0
0.00017422583793950982 -6.757690314362417e-5 0.0
0.00018619929902320538 -7.166685834147835e-5 0.0
0.0001984568808815629 -7.586548707353911e-5 0.0
0.00021065322422019923 -8.017201755913942e-5 0.0
0.0002229566941469128 -8.449543447881486e-5 0.0
0.00023525131013666287 -8.877796475308323e-5 0.0
0.000247464223443746 -9.308427794728574e-5 0.0
0.00025963646683868543 -9.738295032574889e-5 0.0
0.0002719640933625047 -0.00010158344552894897 0.0
0.000284029230192875 -0.00010571272654782802 0.0
0.0002964124358823442 -0.00010958527242418162 0.0
0.00030856732225999954 -0.00011340846106743629 0.0
0.00032096734649487323 -0.00011705511391154767 0.0
0.00033319871815338386 -0.00012054658146666676 0.0
0.00034550471388603634 -0.00012395182496913317 0.0
0.0003576829099336067 -0.00012707020697800983 0.0
0.000370121372816322 -0.00013003294640400145 0.0
0.0003822572870474745 -0.00013284912043926556 0.0
0.00039457925749548684 -0.00013542571970944688 0.0
0.0004067450095072111 -0.00013772487912285772 0.0
0.0004187587554341773 -0.00013986988633079227 0.0
0.000430655559565184 -0.00014185529651594833 0.0
0.0004435603799950348 -0.0001441867336911879 0.0
0.0004571580094819836 -0.00014699807685929472 0.0
0.0004712386884829153 -0.00015060436235537345 0.0
0.0004871248091511853 -0.0001543789450757962 0.0
0.0005020620427896771 -0.00015868808449781595 0.0
0.0005171868531230498 -0.00016280667153692664 0.0
0.000531570032694558 -0.00016722453028413032 0.0
0.000543925891542534 -0.00017244559593961728 0.0
0.0005559092957678305 -0.0001761727217057885 0.0
0.0005662071452126831 -0.00018018365214000733 0.0
0.000577754891621949 -0.00018301631899028507 0.0
0.0005890655793939139 -0.0001857874528865736 0.0
0.0006005300998609931 -0.0001882555641943511 0.0
0.0006126731361534077 -0.0001899760747145147 0.0
0.0006243335646131227 -0.0001922249176332336 0.0
0.0006370776742969462 -0.00019385683007992028 0.0
0.0006489069631838035 -0.0001959987056340703 0.0
0.0006614517456098077 -0.0001980648568907426 0.0
0.0006732652855193852 -0.00020001582057053654 0.0
0.0006865549253647935 -0.00020113950003775895 0.0
0.0006994919105082131 -0.00020223432612040618 0.0
0.0007137125996062746 -0.00020311908045544242 0.0
0.0007286913352904403 -0.00020375562671150953 0.0
0.0007444859740038498 -0.00020417370049293976 0.0
0.0007609532618124784 -0.00020454792082148652 0.0
0.0007779697335930133 -0.0002047588174846219 0.0
0.000794990041693779 -0.00020501015586595547 0.0
0.0008117117164097573 -0.00020532416977975303 0.0
0.0008281955270371394 -0.00020573896365240043 0.0
0.0008439215303591011 -0.00020610829755450877 0.0
0.0008591026808982835 -0.0002065675504747506 0.0
0.0008736859843285901 -0.00020694099478348995 0.0
0.0008879533826982912 -0.0002070849817168851 0.0
0.0009020869295721422 -0.00020710505995380322 0.0
0.0009165936225170797 -0.00020675388101049975 0.0
0.0009314654709604392 -0.00020616722708008365 0.0
0.0009457783777174293 -0.00020536789666423253 0.0
0.0009605167035468045 -0.00020433151182284805 0.0
0.0009746487665752953 -0.00020346643128035113 0.0
0.0009884516202382104 -0.00020256128260318445 0.0
0.001001968869895814 -0.00020163588435646304 0.0
0.0010140995138175745 -0.0002009308033819084 0.0
0.001025595293383329 -0.00020008925324701152 0.0
0.0010363005693713563 -0.0001992626145738856 0.0
0.0010469636618784723 -0.0001982744968359157 0.0
0.0010569527138936253 -0.00019599853259016572 0.0
0.0010695519063594415 -0.00019464103436228101 0.0
0.0010820865708584056 -0.00019351937840928764 0.0
0.001094896658145874 -0.00019241694092985781 0.0
0.0011071417564615534 -0.00019025296951152008 0.0
0.0011189175771694833 -0.00018673040624076615 0.0
0.001131009564601537 -0.00018245767984419246 0.0
0.0011445244780993698 -0.00017695073891542978 0.0
0.0011586042970683516 -0.00017091565296871312 0.0
0.001172281541216351 -0.00016539486149209435 0.0
0.0011862539783723356 -0.00015958458234858943 0.0
0.0012011090652113438 -0.00015249451710509158 0.0
0.001215696328900397 -0.00014410851580801742 0.0
0.0012309949935206854 -0.00013452527405140942 0.0
0.0012469743486369156 -0.0001239060869888249 0.0
0.0012648317511605106 -0.00011166993041609508 0.0
0.001284413722985168 -9.725469932654138e-5 0.0
0.0013059116664235334 -8.043629490771855e-5 0.0
0.0013316926827375718 -6.052750910507073e-5 0.0
0.0013609534196458457 -3.618404099420933e-5 0.0
0.0014000000003708771 -5.939044101637876e-13 0.0
0.0013999999967139447 -4.600892575474666e-12 0.0
0.0013999999990038923 1.2313802256874678e-13 0.0
0.001399999998359811 -2.952323520547979e-13 0.0
0.001399999998741651 2.2982980604329434e-13 0.0
0.0013999999987476558 4.778260428009594e-13 0.0
0.001399999998773529 5.269189083145679e-13 0.0
0.00139999999891358 6.109425823549961e-13 0.0
0.0013999999989528517 6.918649319353917e-13 0.0
0.0013999999990487063 7.569041620393012e-13 0.0
0.0013999999991032232 8.342365582706179e-13 0.0
0.0013999999991494937 9.678302982547098e-13 0.0
0.001399999999141197 1.0650181731204235e-12 0.0
0.0013999999991447024 1.176117719554897e-12 0.0
0.0013999999991294824 1.2692237128066223e-12 0.0
0.0013999999991207393 1.3611325088073857e-12 0.0
0.0013999999990936326 1.4232102917847129e-12 0.0
0.0013999999991010838 1.5238104327885537e-12 0.0
0.0013999999991204722 1.5866449652722534e-12 0.0
0.0013999999991500063 1.562978286721791e-12 0.0
0.001399999999213049 1.5158229719645588e-12 0.0
0.0013999999992367017 1.401866477552469e-12 0.0
0.0013999999994378587 1.3559680820471414e-12 0.0
0.0013999999996597743 1.4776345794210855e-12 0.0
0.0013999999997380526 1.1217519410300884e-12 0.0
0.0013172019342729971 2.1658927281816624e-5 0.0
0.0012393148577334785 2.599589233606066e-5 0.0
0.0011621394389681216 1.760724939060938e-5 0.0
0.0010963913045236137 1.0638818890367302e-5 0.0
0.0010480153220001037 -2.8268593903603604e-5 0.0
0.0010430823645645015 -5.445797276395788e-5 0.0
0.0010400910943345423 -8.40063944920142e-5 0.0
0.001032600462187474 -0.0001039077717992423 0.0
0.0010219146939373315 -0.00011794532044829935 0.0
0.0010077319235036498 -0.00012652758208146176 0.0
0.0009905469738688078 -0.0001308113689451831 0.0
0.0009709138655671106 -0.00012832826169586228 0.0
0.0009488674999571368 -0.0001219422179255447 0.0
0.0009244355530047663 -0.00011211411730944389 0.0
0.0008962385374031421 -9.946958701860822e-5 0.0
0.0008629233789613423 -8.35396671895831e-5 0.0
0.0007855752977502862 -1.6520262654864232e-5 0.0
0.0007645145113713295 5.084801264236351e-6 0.0
0.0007460425474269378 2.2688476570214705e-5 0.0
0.0007288994178233423 4.001200345974749e-5 0.0
0.000712369308206816 5.72106238184344e-5 0.0
0.0006976324171690519 7.494821723685147e-5 0.0
0.0006842653487141181 9.369516354463472e-5 0.0
0.0006730313884076497 0.00011185459868712049 0.0
0.0006658110195062505 0.0001358557593145617 0.0
0.0006602743708606245 0.00016268934042069856 0.0
0.0006634074462136988 0.00020166453240796488 0.0
0.0006624176728751445 0.00024689653301383167 0.0
0.000593270438623233 0.00031479787708216115 0.0
0.0005003588168874903 0.0003089563173683617 0.0
0.000394597303148946 0.00027372673470114103 0.0
0.00025947510828936966 0.0001931151778340578 0.0
0.0003730588690420415 -0.000125073445376822 0.0
0.0009407989910169603 -0.00019338200759401594 0.0
0.00046071606196675867 -0.00014173179281334866 0.0
0.0008367215565859104 -0.00019577444504873963 0.0
0.0005588152074070988 -0.00017120786080729476 0.0
0.0007192181944615845 -0.00019099508331952287 0.0
0.0006297949374279622 -0.0001834032419894207 0.0
0.0010222341560865186 -0.00019099127326872197 0.0
0.0003008670709126812 -0.00010738822520065718 0.0
0.0010756110537849556 -0.00018058114732199016 0.0
0.00023910352084140213 -8.75581951297778e-5 0.0
2.7104238727287257e-5 -6.429404883129999e-6 0.0
0.0013641515972983892 1.0684086730029047e-6 0.0
0.0008471500775741854 -5.6031914131627e-5 0.0
0.0009445155684002467 -0.00011379309028999544 0.0
0.0007567783495962976 -2.4133393391462767e-5 0.0
0.000692093584659254 5.559814985839974e-5 0.0
0.0011414598882566345 -0.0001627853898422552 0.0
0.00018068384565310215 -6.717179856583569e-5 0.0
2.1588987514375283e-5 -5.227188149335712e-6 0.0
0.001374691099637561 -7.103340664423578e-7 0.0
0.0013494632846517678 2.4504537618229043e-6 0.0
3.111391750334539e-5 -4.21640319285859e-6 0.0
0.0011977861542423435 -0.00013437795566852853 0.0
0.0001300875891484346 -4.840036784337579e-5 0.0
0.0010062421784093085 -0.00011253290513720645 0.0
0.0006443640209297084 0.00010610347842870142 0.0
1.6967333360263603e-5 -4.002887106042439e-6 0.0
0.0013785727474084882 -1.2929886290748848e-6 0.0
0.0005221026341479287 -0.00015714499030057262 0.0
0.0005933533579377954 -0.00017879640734667053 0.0
0.0007864341858651027 -0.0001937414932701624 0.0
0.0006670474248735498 -0.00018786341674199416 0.0
0.0008817681982046903 -0.00019604618697474768 0.0
0.0009812555925862022 -0.00019268176370494967 0.0
0.00042555468855775327 -0.0001356875926358411 0.0
0.0003375198384732582 -0.00011759981057604244 0.0
0.0012428432142070718 -0.00010740153315550729 0.0
9.172668550828478e-5 -3.3988426173959235e-5 0.0
0.00134177975365793 2.5187378285919775e-6 0.0
4.26266134450081e-5 2.83683096329073e-7 0.0
0.0013818404375701256 -1.883855067112477e-6 0.0
1.5640933048764363e-5 -3.6722132925089606e-6 0.0
0.001042820741087059 -8.813405549203037e-5 0.0
0.000625756616170272 0.00014894718663735062 0.0
0.001328542590974536 1.6735550686787805e-6 0.0
7.000380603879603e-5 3.53818445449056e-6 0.0
2.4738492731967782e-5 -6.0236228700853356e-6 0.0
0.0013696563811294706 1.5820812932928504e-7 0.0
0.0008978401634717505 -9.294410422975765e-5 0.0
0.000726413694700296 2.0434111700893064e-5 0.0
5.091613901062466e-5 -1.7700362933711086e-5 0.0
0.0013061432719363338 -6.22834697658637e-5 0.0
0.0009098719083739497 -0.00019638907901668338 0.0
0.000692385594043917 -0.00019049055192779923 0.0
0.0004935517340969542 -0.0001488346703207785 0.0
0.0003991789192385588 -0.00013133759990712697 0.0
0.0007526573509054087 -0.00019213370410167848 0.0
0.0010423815703673926 -0.0001895306206324394 0.0
0.00027638125325675446 -9.984392051184032e-5 0.0
0.0011027342073179763 -0.00017615033226016009 0.0
0.0002132669817303261 -7.828547685021612e-5 0.0
0.00015422843336417196 -5.7490355445057414e-5 0.0
0.0011689595266337043 -0.00014897944184083655 0.0
0.00043211387942308836 0.00017423268249518024 0.0
0.0011841731234269897 -5.670935213395673e-6 0.0
0.0013815376212227444 -4.5614403340498894e-6 0.0
1.293999063309199e-5 -3.2730483048443946e-6 0.0
0.0006176318225807725 0.00021704732209802658 0.0
0.0010633945120111154 -4.000651343778827e-5 0.0
9.458767081515299e-5 1.3278236921194125e-5 0.0
0.001339082698275807 3.108447523487273e-6 0.0
2.2214585281509643e-5 -7.0531575955069315e-6 0.0
0.0013564933612113255 -2.5126425130022626e-5 0.0
0.0011244169144715343 -1.1892337442359348e-5 0.0
0.0011336063755399317 -2.4968422997339608e-5 0.0
0.0012015268048543271 -1.1501120141347155e-5 0.0
0.0011477593286825846 -2.395266622983526e-5 0.0
0.0010950462548743487 -4.358390303423883e-5 0.0
0.0010986448038391569 -3.714035248651314e-5 0.0
0.0011524787966212366 -1.9853733386353255e-5 0.0
0.00110430358703857 -2.676591520411486e-5 0.0
0.0011611030748513557 -1.3650100392555586e-5 0.0
0.001115174914773961 -1.682748334160357e-5 0.0
0.0010637080431894904 -3.0085347168738846e-5 0.0
0.0010726927234685271 -1.784576634922497e-5 0.0
0.001029337954851754 -2.8867018558158414e-5 0.0
0.0010358242114928008 -1.688729345249644e-5 0.0
0.0009979252659066294 -2.5783419338161668e-5 0.0
0.0010039210279628983 -1.3456567417711215e-5 0.0
0.0008339241076482767 -4.9412649510986465e-5 0.0
0.0008020268963049869 -5.672273531402379e-5 0.0
0.0008181697518849268 -4.9876971749446774e-5 0.0
0.0007905275427340177 -5.788407786088508e-5 0.0
0.000804953836213938 -5.1434356844249587e-5 0.0
0.0007805097325218034 -5.8103126191301924e-5 0.0
0.0007929140493610562 -5.139324494595832e-5 0.0
0.0007705277025110168 -5.769313991473566e-5 0.0
0.000781762451514638 -5.125239668081879e-5 0.0
0.0007607119504117827 -5.7705952912277925e-5 0.0
0.0007714959986704484 -5.156151166849034e-5 0.0
0.0007515948862402658 -5.739496280668077e-5 0.0
0.0007620674108882317 -5.1720067543690895e-5 0.0
0.0007435045228140511 -5.657425531088648e-5 0.0
0.0007533962886574099 -5.1129936911578625e-5 0.0
0.0007353788419697149 -5.576221153097467e-5 0.0
0.0007453477190855901 -5.080236829347755e-5 0.0
0.0007272517163540172 -5.5528071783222515e-5 0.0
0.0007377659190642591 -5.079118755345785e-5 0.0
0.000720237060746845 -5.472837013155996e-5 0.0
0.0007308352768487735 -5.03342109471254e-5 0.0
0.0007137118309882846 -5.402598012661827e-5 0.0
0.0007238716116630082 -5.0054090485004315e-5 0.0
0.0007073982696763022 -5.362326881275794e-5 0.0
0.0007176278092799786 -5.006901501287828e-5 0.0
0.0007018586036917586 -5.344181624211753e-5 0.0
0.0007117281894593004 -5.01285239840361e-5 0.0
0.0006958035181369819 -5.365440094004551e-5 0.0
0.0007059495932827183 -5.050282047251918e-5 0.0
0.0006869881226098711 -5.4709997634122354e-5 0.0
0.0007012687527573959 -5.097565953234497e-5 0.0
0.000684831105862221 -5.420075154681161e-5 0.0
0.0006962114203862125 -5.157587203171529e-5 0.0
0.0006804524714259925 -5.473355448252834e-5 0.0
0.0006915532227044217 -5.247550232356771e-5 0.0
0.0006767410066265209 -5.5419410955231995e-5 0.0
0.0006870439411589842 -5.3564391399640926e-5 0.0
0.000672575741469703 -5.640574516436283e-5 0.0
0.0007454067941630911 -6.248686854072533e-5 0.0
0.0006827464046854071 -5.487466061233447e-5 0.0
0.0007087150535279752 -5.9111878382754455e-5 0.0
0.000670237607234102 -5.743230987505304e-5 0.0
0.0006676581821193488 -5.783859965719414e-5 0.0
0.0006785619572050083 -5.646563094954191e-5 0.0
0.000662872491354654 -5.951912270622207e-5 0.0
0.000652400001955539 -6.0629919193501816e-5 0.0
0.0006472494653321137 -6.233506096349405e-5 0.0
0.0006738645843336479 -5.8420650079612096e-5 0.0
0.0006898280427473761 -5.518875325637294e-5 0.0
0.000711525613220491 -4.847179681827967e-5 0.0
0.00068529758373778 -5.7410619658829e-5 0.0
0.0007024631313321592 -5.376474813094758e-5 0.0
0.0006973180200463226 -5.649735012736844e-5 0.0
0.0006368716572627791 -6.328732319260096e-5 0.0
0.000632430888305575 -6.480965072743073e-5 0.0
0.0007151793093395262 -5.2578068481944186e-5 0.0
0.0006211235355835829 -6.572111285136874e-5 0.0
0.0006174860316587294 -6.71434304950845e-5 0.0
0.0007104389776620225 -5.5549238335416344e-5 0.0
0.0007277065867287791 -5.1777233547454964e-5 0.0
0.0006051381649156834 -6.797184047868528e-5 0.0
0.0006012459608780963 -6.937028656270226e-5 0.0
0.0007235107262194043 -5.492899396067784e-5 0.0
0.0007414097673853987 -5.096893641605532e-5 0.0
0.0005890556605881069 -6.994881718388403e-5 0.0
0.0005849840277234989 -7.147181992121237e-5 0.0
0.0007371974396300387 -5.4525994936564604e-5 0.0
0.0007558288310703363 -5.031289260650695e-5 0.0
0.0005729449570680268 -7.173831331243482e-5 0.0
0.0005679566911436212 -7.326798051904096e-5 0.0
0.0007519385221532354 -5.4185002918520355e-5 0.0
0.000770877317090819 -4.985632930229449e-5 0.0
0.000555082370432369 -7.331423485845257e-5 0.0
0.0005504982461228216 -7.482155254157831e-5 0.0
0.0005361152193984741 -7.469596110933288e-5 0.0
0.000540948973562404 -7.341399089482086e-5 0.0
0.0007319481921350854 -5.833376616190254e-5 0.0
0.0007670281231246052 -5.415282406365422e-5 0.0
0.0007866163162027196 -4.965339189323748e-5 0.0
0.0007908676406407256 -4.5118730698990746e-5 0.0
0.0007393124166064115 -4.64109455961311e-5 0.0
0.000807481691587081 -4.4813648736036576e-5 0.0
0.0008119682770654828 -4.006046845384639e-5 0.0
0.000829350972815461 -3.959759294392143e-5 0.0
0.0005328966716626479 -7.629873225355749e-5 0.0
0.0005174932905538477 -7.579139513626379e-5 0.0
0.0005471119625039883 -7.673803347930195e-5 0.0
0.0007823559242347905 -5.449721120303811e-5 0.0
0.0005146109347725969 -7.745521705277857e-5 0.0
0.0004985387364885423 -7.666113646380159e-5 0.0
0.0007709978353699439 -4.5904698903096393e-5 0.0
0.0004958747991839622 -7.81999145253316e-5 0.0
0.00047940228978349817 -7.716054308824666e-5 0.0
0.0004769206884348635 -7.87514212279724e-5 0.0
0.0004606291060957018 -7.73600808406008e-5 0.0
0.0004626581622443611 -7.605113024290302e-5 0.0
0.0004422968205636881 -7.603857663401668e-5 0.0
0.0004446309484830385 -7.476744235906509e-5 0.0
0.0004561457088957915 -7.897632067754284e-5 0.0
0.00042240172712893154 -7.434463841450849e-5 0.0
0.0004245274502074166 -7.32577163841985e-5 0.0
0.00047469465636402667 -8.076465599384972e-5 0.0
0.0004568964250643824 -8.125856020344818e-5 0.0
0.00040260997244265684 -7.235800504346273e-5 0.0
0.0004036822721656218 -7.134243069698244e-5 0.0
0.0008342894961093924 -3.484508428313037e-5 0.0
0.0008525433740537402 -3.4322916003727894e-5 0.0
0.0004726099855116028 -8.31567021175678e-5 0.0
0.0004552092137096142 -8.363129633430662e-5 0.0
0.0008576425125380352 -2.9478550672027347e-5 0.0
0.0008769606105808401 -2.8987933019978574e-5 0.0
0.0008710506039796885 -3.4693435159231486e-5 0.0
0.0008959725689967975 -2.9111631892174896e-5 0.0
0.0008906792619171261 -3.535287810819397e-5 0.0
0.0009161190354059644 -2.9343545015660695e-5 0.0
0.0009122603822775788 -3.592454007634137e-5 0.0
0.0009390777283556785 -2.920262439945826e-5 0.0
0.0009332217987827011 -3.637074470273952e-5 0.0
0.000942668763065761 -2.3263285047457024e-5 0.0
0.0009608096855607301 -2.9710425419296983e-5 0.0
0.0009538085736498305 -3.740528591011611e-5 0.0
0.00047092439566843156 -8.58584088987182e-5 0.0
0.00038017337556633403 -6.995302407788733e-5 0.0
0.0003804941121732152 -6.881180408853129e-5 0.0
0.0009282682859118567 -4.46880381512243e-5 0.0
0.0009481888973282756 -4.6157047375730724e-5 0.0
0.0009738178238097128 -3.861969482687273e-5 0.0
0.0009244988291647381 -5.382717367819484e-5 0.0
0.00045405657417710234 -8.63422791143431e-5 0.0
0.0009683744266441694 -4.797547312231331e-5 0.0
0.0009939082930366973 -4.000041795853426e-5 0.0
0.00046937199760355505 -8.889831029798623e-5 0.0