# vtk DataFile Version 2.0
phase field modeling fracture
ASCII
DATASET UNSTRUCTURED_GRID
POINTS 2538 float
0.0 0.0 0.0
10.0 0.0 0.0
0.0 10.0 0.0
10.0 10.0 0.0
0.0 4.9995 0.0
0.0 5.0005 0.0
5.0 5.0 0.0
0.9416964895726688 0.0 0.0
1.803581725054446 0.0 0.0
2.592419885431098 0.0 0.0
3.314401822861676 0.0 0.0
3.975193910351406 0.0 0.0
4.579982132660152 0.0 0.0
5.133512780936812 0.0 0.0
5.640130319506143 0.0 0.0
6.103810708661955 0.0 0.0
6.528192895506818 0.0 0.0
6.916607540127679 0.0 0.0
7.272102969376355 0.0 0.0
7.597469242948583 0.0 0.0
7.895259826292669 0.0 0.0
8.167811885738017 0.0 0.0
8.417264413845215 0.0 0.0
8.645575169389538 0.0 0.0
8.854535961159101 0.0 0.0
9.045786767735546 0.0 0.0
9.220828555767493 0.0 0.0
9.38103509633881 0.0 0.0
9.527663687265145 0.0 0.0
9.661865124984566 0.0 0.0
9.784692609918062 0.0 0.0
9.897110148790482 0.0 0.0
10.0 0.09999999999992584 0.0
10.0 0.199999999999856 0.0
10.0 0.2999999999997771 0.0
10.0 0.3999999999996677 0.0
10.0 0.4999999999995511 0.0
10.0 0.5999999999994683 0.0
10.0 0.6999999999993983 0.0
10.0 0.7999999999993286 0.0
10.0 0.8999999999992587 0.0
10.0 0.9999999999991888 0.0
10.0 1.099999999999119 0.0
10.0 1.199999999999033 0.0
10.0 1.299999999998852 0.0
10.0 1.399999999998576 0.0
10.0 1.499999999998284 0.0
10.0 1.599999999997992 0.0
10.0 1.6999999999977 0.0
10.0 1.799999999997408 0.0
10.0 1.899999999997116 0.0
10.0 1.999999999996825 0.0
10.0 2.099999999996533 0.0
10.0 2.199999999996241 0.0
10.0 2.299999999995949 0.0
10.0 2.399999999995657 0.0
10.0 2.499999999995365 0.0
10.0 2.599999999995073 0.0
10.0 2.699999999994782 0.0
10.0 2.79999999999449 0.0
10.0 2.899999999994198 0.0
10.0 2.999999999993906 0.0
10.0 3.099999999993614 0.0
10.0 3.199999999993322 0.0
10.0 3.299999999993029 0.0
10.0 3.399999999992738 0.0
10.0 3.499999999992446 0.0
10.0 3.599999999992154 0.0
10.0 3.699999999991863 0.0
10.0 3.799999999991571 0.0
10.0 3.899999999991278 0.0
10.0 3.999999999991022 0.0
10.0 4.099999999991035 0.0
10.0 4.199999999991187 0.0
10.0 4.299999999991338 0.0
10.0 4.399999999991491 0.0
10.0 4.499999999991642 0.0
10.0 4.599999999991795 0.0
10.0 4.699999999991947 0.0
10.0 4.799999999992099 0.0
10.0 4.89999999999225 0.0
10.0 4.999999999992403 0.0
10.0 5.099999999992555 0.0
10.0 5.199999999992706 0.0
10.0 5.299999999992858 0.0
10.0 5.39999999999301 0.0
10.0 5.499999999993161 0.0
10.0 5.599999999993313 0.0
10.0 5.699999999993466 0.0
10.0 5.799999999993618 0.0
10.0 5.899999999993771 0.0
10.0 5.999999999993922 0.0
10.0 6.099999999994074 0.0
10.0 6.199999999994227 0.0
10.0 6.299999999994378 0.0
10.0 6.39999999999453 0.0
10.0 6.499999999994682 0.0
10.0 6.599999999994833 0.0
10.0 6.699999999994986 0.0
10.0 6.799999999995138 0.0
10.0 6.899999999995289 0.0
10.0 6.999999999995442 0.0
10.0 7.099999999995594 0.0
10.0 7.199999999995747 0.0
10.0 7.299999999995897 0.0
10.0 7.39999999999605 0.0
10.0 7.499999999996202 0.0
10.0 7.599999999996353 0.0
10.0 7.699999999996505 0.0
10.0 7.799999999996658 0.0
10.0 7.899999999996808 0.0
10.0 7.999999999996962 0.0
10.0 8.099999999997113 0.0
10.0 8.199999999997265 0.0
10.0 8.299999999997418 0.0
10.0 8.399999999997569 0.0
10.0 8.499999999997721 0.0
10.0 8.599999999997873 0.0
10.0 8.699999999998024 0.0
10.0 8.799999999998176 0.0
10.0 8.899999999998329 0.0
10.0 8.99999999999848 0.0
10.0 9.099999999998634 0.0
10.0 9.199999999998786 0.0
10.0 9.299999999998937 0.0
10.0 9.399999999999089 0.0
10.0 9.499999999999241 0.0
10.0 9.599999999999392 0.0
10.0 9.699999999999545 0.0
10.0 9.799999999999697 0.0
10.0 9.899999999999848 0.0
9.897110148790565 10.0 0.0
9.784692609918244 10.0 0.0
9.66186512498486 10.0 0.0
9.527663687265571 10.0 0.0
9.381035096339392 10.0 0.0
9.220828555768257 10.0 0.0
9.045786767736512 10.0 0.0
8.854535961160305 10.0 0.0
8.645575169391027 10.0 0.0
8.417264413847017 10.0 0.0
8.167811885740178 10.0 0.0
7.895259826295246 10.0 0.0
7.597469242951631 10.0 0.0
7.272102969379938 10.0 0.0
6.916607540131873 10.0 0.0
6.528192895511704 10.0 0.0
6.103810708667616 10.0 0.0
5.640130319512691 10.0 0.0
5.13351278094435 10.0 0.0
4.579982132668816 10.0 0.0
3.975193910361222 10.0 0.0
3.314401822869852 10.0 0.0
2.592419885437257 10.0 0.0
1.803581725058137 10.0 0.0
0.9416964895740705 10.0 0.0
0.0 9.00010000000243 0.0
0.0 8.000200000005481 0.0
0.0 7.000300000005135 0.0
0.0 6.000400000002569 0.0
0.901790731451151 5.000409820926855 0.0
1.657200899774397 5.000334279910023 0.0
2.289991063707192 5.000271000893629 0.0
2.820065163538221 5.000217993483646 0.0
3.264096435579811 5.000173590356442 0.0
3.636051481595835 5.00013639485184 0.0
3.947629914072366 5.000105237008593 0.0
4.208632181002628 5.0000791367819 0.0
4.427267949625672 5.000057273205037 0.0
4.610414277633563 5.000038958572237 0.0
4.763831845154243 5.000023616815485 0.0
4.892346298799659 5.00001076537012 0.0
4.892346298799748 4.99998923462988 0.0
4.763831845154455 4.999976383184515 0.0
4.610414277633943 4.999961041427763 0.0
4.427267949626277 4.999942726794963 0.0
4.208632181003523 4.9999208632181 0.0
3.94762991407365 4.999894762991407 0.0
3.636051481597624 4.99986360514816 0.0
3.264096435582253 4.999826409643559 0.0
2.820065163541503 4.999782006516354 0.0
2.289991063711534 4.999728999106371 0.0
1.657200899778495 4.999665720089978 0.0
0.9017907314530094 4.999590179073145 0.0
0.0 3.999600000002013 0.0
0.0 2.999700000005187 0.0
0.0 1.99980000000512 0.0
0.0 0.9999000000025537 0.0
9.897889398521345 2.93573355845387 0.0
9.906568249974548 7.060009441434234 0.0
9.913122631074113 3.64016132281653 0.0
9.922462129543863 6.354535290629151 0.0
9.917693659967533 4.354211663134567 0.0
9.909873057440208 5.637584487339942 0.0
9.914183254994697 4.950672966925282 0.0
9.913885043715895 7.666887930262611 0.0
9.91009668007573 2.351889069770817 0.0
9.905135696074536 8.138152454502785 0.0
9.913397459621809 1.849999999997262 0.0
7.099302372137626 0.297750452375005 0.0
7.095143729410097 9.700359990366296 0.0
4.942912558701401 5.095838627899509 0.0
4.315009232304429 5.165022115481685 0.0
4.946182472483878 4.906763777264103 0.0
4.317967462990024 4.825955043772673 0.0
9.916390871492647 8.64999999999792 0.0
9.921504649680616 1.368376469890358 0.0
8.292538149791614 0.206877570318844 0.0
8.292538149793597 9.793122429681448 0.0
5.884594439766573 9.587645267048616 0.0
5.794826292691579 0.3794853783929359 0.0
9.913397459621425 9.049999999998557 0.0
9.908526577714177 0.9568239351922434 0.0
3.456851160380649 5.315740054130451 0.0
3.457889657868442 4.707121019609468 0.0
8.945214200703926 0.1503383337970344 0.0
8.950161364448409 9.8413906539257 0.0
9.913862335499305 4.055887885208452 0.0
9.916697353372683 4.650158482607802 0.0
9.919076340414442 6.049999999994006 0.0
9.906994308667635 5.25749687748192 0.0
9.917490342358025 6.655979201891897 0.0
9.915757520293784 7.343848891656911 0.0
9.910049507471042 3.363474386285078 0.0
9.914471988502868 2.647400064832979 0.0
9.91474124160965 9.337490423485129 0.0
9.916971008170838 0.6499999999994355 0.0
4.307157269264427 9.509674045029644 0.0
4.331527375865619 0.4401616696422582 0.0
9.45434939180249 9.878397030523757 0.0
9.457696120412969 0.1270877537061785 0.0
2.555070293622606 5.422044496190925 0.0
2.566232917480916 4.608001224030952 0.0
3.026511860837692 9.332320638257093 0.0
2.945561971800619 0.5895662714727601 0.0
7.7395404387124 0.2511088946967771 0.0
7.736379255744154 9.745848826372828 0.0
4.687135269408529 5.122111433928926 0.0
4.688420821504113 4.871895064967488 0.0
9.910554884115975 0.3448356354522978 0.0
9.911230082250466 9.65764729394159 0.0
9.921953841410854 6.851023993342036 0.0
9.912065178606017 5.448170483544033 0.0
9.911660025326261 3.861846960030188 0.0
9.914847467973438 3.14501593945607 0.0
9.913397459621425 5.849999999993703 0.0
9.913397459621425 7.849999999996735 0.0
9.906916878988277 2.15455769998631 0.0
9.913397459621425 8.349999999997479 0.0
9.909472363117661 1.640528221515488 0.0
9.913987325695956 1.152857110636247 0.0
9.913397459621425 8.849999999998241 0.0
0.9100099990995943 2.614215977520411 0.0
0.8395284981715456 7.451196254860987 0.0
9.723278867451556 9.898135916635193 0.0
9.723316350887044 0.09841820909386662 0.0
1.385819164827588 4.454539963646463 0.0
1.338343629665047 5.523111536005823 0.0
1.377179700550677 0.6809168304959698 0.0
1.418060461092743 9.285896715136046 0.0
9.91268220142518 0.1457914080939694 0.0
9.906737126737994 9.845745933882352 0.0
0.7108351382691361 6.537941170074089 0.0
1.527735020267026 6.915620208855231 0.0
1.630993885659103 7.838271825205868 0.0
2.232760943566823 7.370850737296832 0.0
2.243414218068206 6.688299277952821 0.0
2.779655053105118 7.021588754814074 0.0
2.80227799359795 7.632420170547022 0.0
3.282022065908813 7.305859666021318 0.0
3.327597298795347 7.857554136825748 0.0
3.743210251018715 7.549183328204379 0.0
3.716353232200752 7.062036086888612 0.0
4.111978858674101 7.27497101169417 0.0
4.104192177581432 6.879858986267289 0.0
4.436230765617037 7.045693351607117 0.0
4.430360014817357 6.703971783962796 0.0
4.732390145036301 6.849841042423394 0.0
5.056161327708878 5.095276573498806 0.0
5.111586796021131 4.999081142133581 0.0
5.169267363407189 5.09444870412406 0.0
5.223795108752053 4.996986220359468 0.0
5.281480803887719 5.092780870372803 0.0
5.335670761900611 4.994887492556936 0.0
5.393485214772442 5.090486192743301 0.0
5.447323082877892 4.992601527033996 0.0
5.505243219343024 5.087953380710069 0.0
5.558739102026105 4.990287787962959 0.0
5.616491581184779 5.085335255235766 0.0
5.669852346908056 4.9879269227514 0.0
5.727502713908907 5.082679981817038 0.0
5.780766004135139 4.988313988715834 0.0
5.838244881129535 5.080480568766611 0.0
5.891357695677371 4.986433849408193 0.0
5.948696036767613 5.077969900389505 0.0
6.001601341641615 4.981313698556656 0.0
6.058851024265095 5.074871552128682 0.0
6.111614020704875 4.978360695880202 0.0
6.168801161530775 5.072044953270978 0.0
6.221368818778567 4.975825765213497 0.0
6.278268309066882 5.066182320461055 0.0
6.330814273567539 4.972837984645718 0.0
6.387565032421376 5.062889771971895 0.0
6.437476667631405 4.971693683589553 0.0
[...]
POINT_DATA 2538
VECTORS disp float
1.5509883657377287e-11 3.6591735715149706e-11 0.0
2.954677781435809e-11 -7.932977392674689e-11 0.0
0.0033999999910794025 2.2629507927762315e-11 0.0
0.0033999999674058606 -8.886380970785048e-11 0.0
0.001161039372479905 0.0004710914147994142 0.0
0.0024601541764407643 0.00020925316809352026 0.0
0.0016769657160874752 8.557170350898585e-5 0.0
3.217005413625487e-12 1.020766641080422e-12 0.0
6.644834139510256e-12 7.150706875549231e-12 0.0
5.72538821166197e-12 3.755028983228992e-12 0.0
5.352475974644211e-12 3.4437707349542252e-12 0.0
4.706191317465322e-12 2.3685084461548876e-12 0.0
4.2598629876333995e-12 1.4850253735108489e-12 0.0
3.8327928318265304e-12 6.76846346280591e-13 0.0
3.512765849482546e-12 -2.1489564134703258e-13 0.0
2.9680692113544605e-12 -1.1976979059834928e-12 0.0
3.20152821677532e-12 -2.14556178875967e-12 0.0
3.103281815709858e-12 -3.2809049832460665e-12 0.0
3.201593980116973e-12 -4.512434754520986e-12 0.0
3.4050916890474002e-12 -5.754159909505696e-12 0.0
3.447064692109208e-12 -6.874661232983472e-12 0.0
3.771988903638659e-12 -8.234561120246281e-12 0.0
3.832009401469121e-12 -9.30150946512355e-12 0.0
4.111820642489467e-12 -1.0618684950700615e-11 0.0
4.292802107366812e-12 -1.2050627309229521e-11 0.0
4.515955692052628e-12 -1.3411196557101914e-11 0.0
4.8151918731913325e-12 -1.507091093822934e-11 0.0
5.203897122622508e-12 -1.6951631930855322e-11 0.0
5.8362585609918e-12 -1.9326500139613533e-11 0.0
5.959002593986311e-12 -2.1861273649512283e-11 0.0
8.3585235601231e-12 -2.8212227837323015e-11 0.0
3.926298927785175e-12 -2.5139153242213746e-11 0.0
4.369448492188561e-5 -5.3823635896080275e-5 0.0
7.602303873936553e-5 -9.206127306819106e-5 0.0
0.00010727843714451254 -0.000125220544234444 0.0
0.00013704639125021207 -0.00015522407528576946 0.0
0.00016575107843381468 -0.00018306241721140982 0.0
0.00019396723653125383 -0.00020951275618459462 0.0
0.00022216782414229456 -0.00023465238065960823 0.0
0.0002500890255632625 -0.0002587110620725453 0.0
0.0002779879554547797 -0.00028192437078942094 0.0
0.00030594593658067376 -0.0003042797423782923 0.0
0.00033397348401985246 -0.0003259860080204932 0.0
0.0003623041149722252 -0.00034703220120322817 0.0
0.0003907263346750359 -0.0003674211730218854 0.0
0.00041937622527233145 -0.0003873195082549301 0.0
0.00044843513454569003 -0.00040666234990920547 0.0
0.0004775922973086158 -0.00042544058997063703 0.0
0.0005070600207777141 -0.00044377309317901844 0.0
0.0005368363781979825 -0.0004615533220047746 0.0
0.0005668921620510326 -0.00047889278784298537 0.0
0.0005972462196168226 -0.0004957821505167277 0.0
0.0006279367107476089 -0.0005122203376439299 0.0
0.0006588947009137712 -0.0005281995600837154 0.0
0.0006903139072779251 -0.0005437851695643419 0.0
0.0007218784242463029 -0.0005588965911800468 0.0
0.000753955568931526 -0.0005736016406055991 0.0
0.0007861509291157834 -0.0005878288445583471 0.0
0.0008187377249195663 -0.0006016611581046784 0.0
0.0008515684111116335 -0.0006150058654949026 0.0
0.0008848476819717203 -0.0006279677851381252 0.0
0.0009182228935568004 -0.0006404831138557402 0.0
0.000952054311841332 -0.0006525984200042572 0.0
0.0009861148390192557 -0.0006642293868438869 0.0
0.001020500621555583 -0.0006754570254237503 0.0
0.0010550762048811232 -0.0006862208653275267 0.0
0.0010900598633874626 -0.0006965749681683747 0.0
0.0011251215299266993 -0.0007064301707796572 0.0
0.0011605076876064595 -0.0007158457905745079 0.0
0.0011960473651550778 -0.0007247167657693085 0.0
0.0012318237254973362 -0.0007330658831908358 0.0
0.0012677931677591908 -0.000741008048091331 0.0
0.0013039073409651049 -0.0007483679604584995 0.0
0.0013402978881896655 -0.0007553088529316878 0.0
0.0013768836352152387 -0.0007617064278727956 0.0
0.0014135821881111816 -0.0007676847924224903 0.0
0.0014504889539428388 -0.0007730685375204725 0.0
0.001487377643116036 -0.0007780087909491127 0.0
0.0015244817443570047 -0.0007824679654824538 0.0
0.0015616067137609396 -0.0007863831875372679 0.0
0.0015988104318576907 -0.0007898769567830328 0.0
0.0016361715040442838 -0.0007928225515724645 0.0
0.00167324765366972 -0.0007951493223834105 0.0
0.0017106821011998175 -0.0007970710382531067 0.0
0.0017474956606976404 -0.0007983634448900743 0.0
0.0017847646190386464 -0.0007991773849065875 0.0
0.0018208753140713835 -0.00079934989165352 0.0
0.0018576138496080752 -0.0007990663105808089 0.0
0.0018929732742987812 -0.00079800967345682 0.0
0.0019281523947919936 -0.0007959608861763919 0.0
0.0019632279466547525 -0.0007934816886338019 0.0
0.0019982267200811723 -0.000789920928565974 0.0
0.0020327275439484737 -0.0007860241983659374 0.0
0.0020670824505450366 -0.0007811301852335124 0.0
0.002101764725293716 -0.0007756328619388815 0.0
0.0021358615930569345 -0.0007686155523989021 0.0
0.0021705910740394433 -0.0007607331750906465 0.0
0.0022057285851802997 -0.0007519377470961762 0.0
0.0022402759226236666 -0.0007421064109386447 0.0
0.0022751447232492806 -0.0007315758583744488 0.0
0.0023103898985333557 -0.0007201915735086878 0.0
0.0023457901065104085 -0.000708093746270932 0.0
0.0023809662052878726 -0.0006953696168547416 0.0
0.0024164771508444994 -0.0006818481153690167 0.0
0.002451675303317 -0.0006677282382667994 0.0
0.0024868395636956477 -0.0006531922729349054 0.0
0.0025221633974916065 -0.0006379504726094252 0.0
0.0025571512933942604 -0.0006222595209484581 0.0
0.002592121135006482 -0.0006060239945658868 0.0
0.0026268958820229913 -0.0005892867732797218 0.0
0.0026616912169433286 -0.000572028006991461 0.0
0.0026963398384511317 -0.0005541934199219775 0.0
0.0027308205813466125 -0.0005358218997725925 0.0
0.0027649543758477735 -0.000516947892631402 0.0
0.0027990006218647544 -0.0004975553993696606 0.0
0.00283296488556764 -0.00047755102931356036 0.0
0.0028666618248453382 -0.00045698592926304594 0.0
0.00290027958187922 -0.0004358924733347568 0.0
0.0029339503366347763 -0.0004140745765219852 0.0
0.0029674025950440852 -0.00039156776853645003 0.0
0.0030006988123556524 -0.0003684230061696845 0.0
0.003034151270672776 -0.00034447811350847405 0.0
0.0030677543800034855 -0.00031959091530230603 0.0
0.0031013094298271496 -0.000293718252149591 0.0
0.003134905008670465 -0.00026683337227799273 0.0
0.0031688127412329613 -0.000238662342912755 0.0
0.003203459931246132 -0.00020885581655926522 0.0
0.0032384030671004354 -0.0001771964596785148 0.0
0.0032740358828609057 -0.00014294072870341002 0.0
0.0033118942354415344 -0.00010478353640381912 0.0
0.0033508211034176025 -6.0801959238437755e-5 0.0
0.0033999999954142236 -2.4589712246097668e-11 0.0
0.003399999990435823 -2.7319583484047477e-11 0.0
0.003399999993633172 -1.7533019700883718e-11 0.0
0.003399999993656288 -1.5301949543840307e-11 0.0
0.0033999999941700027 -1.2630155830359754e-11 0.0
0.0033999999944397787 -1.0749614087124748e-11 0.0
0.003399999994552317 -9.363825028832505e-12 0.0
0.003399999994762497 -8.133453059744986e-12 0.0
0.0033999999948377316 -7.016552090239271e-12 0.0
0.003399999995006126 -5.9567697798209824e-12 0.0
0.0033999999952157504 -5.1080357759475525e-12 0.0
0.003399999995313591 -4.021434206058709e-12 0.0
0.0033999999954448406 -3.208667641377347e-12 0.0
0.0033999999955804153 -2.243082990419482e-12 0.0
0.0033999999956575437 -1.3130616415906842e-12 0.0
0.0033999999956867413 -2.925225619341783e-13 0.0
0.00339999999574514 7.397301223632927e-13 0.0
0.0033999999953622808 1.945429617669941e-12 0.0
0.003399999995698798 2.9332807245965667e-12 0.0
0.003399999995030872 4.2261324043618175e-12 0.0
0.003399999995054402 5.0912427332169904e-12 0.0
0.003399999994833478 6.0240906402843945e-12 0.0
0.003399999995018011 6.263843091446466e-12 0.0
0.0033999999950768568 8.19962640117595e-12 0.0
0.003399999997446575 3.609943358866452e-12 0.0
0.003144326170325772 0.00015060682914297969 0.0
0.002928102997876462 0.0002183441603444963 0.0
0.002735919141285276 0.00023424760506751213 0.0
0.002570808582531922 0.00022395173541953068 0.0
0.002457734388129559 0.00010814353972769109 0.0
0.002444495977516964 5.3585619927973386e-5 0.0
0.002404706520370004 2.8738473193364227e-5 0.0
0.0023543136231223625 2.7597030355803988e-5 0.0
0.0022955077225724407 3.786471461909402e-5 0.0
0.002233718058805676 4.945986993137267e-5 0.0
0.002169937012873781 6.0271646256257783e-5 0.0
0.002105053611541865 7.128664732996057e-5 0.0
0.0020377346108407086 8.017439581711416e-5 0.0
0.001967380496682751 8.64679908708324e-5 0.0
0.0018903908867810473 9.004060198577805e-5 0.0
0.0017993997384881135 9.169516627619334e-5 0.0
0.0015682753979931955 0.0001239909446092668 0.0
0.0014915287657378054 0.0001382780384131052 0.0
0.00142828707236697 0.00014590549178180988 0.0
0.0013732872164967974 0.00015176118588944794 0.0
0.001323544311155797 0.0001572512809565414 0.0
0.0012786837225370832 0.00016327241752837662 0.0
0.0012384535243165542 0.00017104454050871775 0.0
0.0012043118718103143 0.00018186096013188063 0.0
0.0011778465640104475 0.00020011331207057484 0.0
0.001159779080711319 0.00022822568678440246 0.0
0.001156925214808457 0.00027970056986697167 0.0
0.0011569065470801796 0.00035383760010867236 0.0
0.0010341626968052946 0.00048461621039584966 0.0
0.0008523260425192528 0.00046366545496951913 0.0
0.0005989281095841659 0.0003798529658975908 0.0
0.000318842502430453 0.0002467210826319349 0.0
0.0008907996426893258 -0.0006017644654181246 0.0
0.002374162002578803 -0.0006601030570986481 0.0
0.0011351200327070778 -0.0006826957087891762 0.0
0.0021241075114200587 -0.0007383208660419249 0.0
0.001393957764418744 -0.00073809695830117 0.0
0.0018718627652520965 -0.0007665682684550663 0.0
0.0016162534152147803 -0.0007626816865230597 0.0
0.0025883128668066704 -0.0005762287694551564 0.0
0.0007007870483482228 -0.0005258549761703461 0.0
0.0027530541919489255 -0.000491751427745448 0.0
0.0005456986373281672 -0.0004465526275585533 0.0
5.57892930771952e-5 -9.98328756422643e-6 0.0
0.0033406166995755444 -8.1577077762249e-6 0.0
0.0018136289064285154 0.00011005374549604502 0.0
0.002075425657133276 9.513781837544794e-5 0.0
0.0015404921056732979 0.00012576099213808966 0.0
0.0013290175824639406 0.00016764328559697118 0.0
0.002925810834059362 -0.0003939280106748807 0.0
0.0004042224074795171 -0.0003604534331731455 0.0
4.006082300447847e-5 -1.7630582467556703e-5 0.0
0.0033575266206398685 -1.373396165146827e-5 0.0
0.00331634739256222 2.7786971305325035e-6 0.0
7.41440954058721e-5 2.5395801990575505e-6 0.0
0.0030605356988755317 -0.00030092008357711787 0.0
0.00028628545734301 -0.0002714979313955968 0.0
0.0022604039617610426 7.079023843368234e-5 0.0
0.0011913774562261024 0.0001880598824941982 0.0
3.0609471786853445e-5 -1.8733336453465774e-5 0.0
0.0033661469717119756 -1.5696565199319777e-5 0.0
0.0012846019778345857 -0.0007173423251741154 0.0
0.001503789658941927 -0.0007528149001438259 0.0
0.002017936326513681 -0.000755188652665755 0.0
0.0017312854911004018 -0.0007662156772941794 0.0
0.0022302897785699597 -0.0007102994561777111 0.0
0.002474138369540046 -0.0006258964163642687 0.0
0.001037716865786033 -0.0006543317300204929 0.0
0.000796261186210051 -0.0005692398273787556 0.0
0.003157601730865604 -0.00022635422106450533 0.0
0.00020065117939952677 -0.00020117763855233525 0.0
0.0032932608157196543 2.021237752207612e-5 0.0
9.496812061728198e-5 1.5107377079481781e-5 0.0
0.003371902942002351 -1.8431763688338076e-5 0.0
2.87504899186716e-5 -2.2692170373103126e-5 0.0
0.0023787146228439952 5.3748484288641186e-5 0.0
0.0011207789565350409 0.0002198154560906822 0.0
0.003249266982098108 3.7285951894845885e-5 0.0
0.0001361112269624863 3.0453115744118027e-5 0.0
4.7669303439223374e-5 -1.50191719660245e-5 0.0
0.003348843957315267 -1.1942188916531434e-5 0.0
0.0019445358302783008 0.00010739757989885326 0.0
0.0014331086511014074 0.00015588927167104174 0.0
0.00011173693218675661 -0.00011616273354214513 0.0
0.003270638669828799 -0.00012769336210532507 0.0
0.002298689163984946 -0.0006916059119611104 0.0
0.001802299695006443 -0.0007688538644195097 0.0
0.0012143763754714513 -0.0007016233357119617 0.0
0.0009626686256452712 -0.0006317761866697511 0.0
0.001947662635898457 -0.0007618438573094631 0.0
0.0026523041101392335 -0.0005459008434931277 0.0
0.0006385248778199548 -0.0004947691470725558 0.0
0.002824628636207596 -0.0004545123586203027 0.0
0.0004828021167830375 -0.00040862336785151655 0.0
0.00034203749798301393 -0.0003150075563805814 0.0
0.0029932886724466585 -0.00034846713661632793 0.0
0.0007075268521884691 0.00024811226837438043 0.0
0.0028137492937911493 0.00014946454602639538 0.0
0.003372348276940093 -2.317106591464836e-5 0.0
2.504734554720403e-5 -2.3316120131305533e-5 0.0
0.0010910888897933061 0.0003028442918065742 0.0
0.002479105428017669 8.729920862399924e-5 0.0
0.00015909491505786195 4.837720461416672e-5 0.0
0.003244841084004166 4.49706195656609e-5 0.0
4.900249017114641e-5 -5.199704565479211e-5 0.0
0.0033427123198033304 -5.785979003182644e-5 0.0
0.0026417737139349065 0.00015221884956588942 0.0
0.0026868344445922046 0.00013090907884909304 0.0
0.002898495070707995 0.00011335765381047041 0.0
0.0027741829348608667 0.00012140607630936904 0.0
0.0026092666582905513 0.00012183721335580578 0.0
0.0026670229345768367 0.00012869050840417698 0.0
0.0028260631978877537 0.00011679276932667325 0.0
0.002726518743446813 0.00012680130658138228 0.0
0.002877014770047995 0.00010792473697440445 0.0
0.002785963004139775 0.00011595913858134444 0.0
0.002645029877356777 0.00013203321027276327 0.0
0.0027002372144853443 0.00011913912944211885 0.0
0.0025793889365379914 0.00013217760018281667 0.0
0.002624558396754446 0.00011721913170723202 0.0
0.0025151279673315974 0.00012859504858044843 0.0
0.0025560928612835166 0.00011022260602094366 0.0
0.00177160988276568 7.153350105655497e-5 0.0
0.0016707267809485723 5.5245745872363435e-5 0.0
0.0017477618702267377 4.7306333213060514e-5 0.0
0.0016659025599140675 3.556920954613877e-5 0.0
0.0017335442082876827 2.8842227061762973e-5 0.0
0.0016629807355170783 1.9795721845266367e-5 0.0
0.0017242257992124176 1.3339577810187152e-5 0.0
0.0016602268294757692 5.388883887790542e-6 0.0
0.0017173385596855031 -6.980125887074377e-7 0.0
0.0016578328526343357 -8.012241659575342e-6 0.0
0.001712022823086098 -1.3727918834076337e-5 0.0
0.0016558237555842667 -2.0663478815416385e-5 0.0
0.0017077966455603688 -2.6484949878715248e-5 0.0
0.001655520544822247 -3.303351745236796e-5 0.0
0.00170438779727515 -3.8830413634666076e-5 0.0
0.0016539554897711333 -4.523537725172535e-5 0.0
0.0017012459587743018 -5.094205136420657e-5 0.0
0.0016508548039344205 -5.728308304883543e-5 0.0
0.0016981450040208445 -6.29875619477979e-5 0.0
0.001648993799880463 -6.921777588406373e-5 0.0
0.0016954630180036217 -7.503305034069248e-5 0.0
0.0016473626074522546 -8.118701021055702e-5 0.0
0.0016914587663447857 -8.70479044568573e-5 0.0
0.001645468039528118 -9.325763250040126e-5 0.0
0.0016888195447520185 -9.918357132130892e-5 0.0
0.0016444542588252209 -0.00010514095521048517 0.0
0.001686463501774293 -0.00011143097348114973 0.0
0.001640544986015017 -0.00011669039353036394 0.0
0.0016836288977760112 -0.00012378929564253377 0.0
0.001628078089949756 -0.00012929784701491782 0.0
0.0016837432158302097 -0.00013656320830367333 0.0
0.0016367446153599178 -0.00014283474348473243 0.0
0.0016811063813374442 -0.00014943105795139862 0.0
0.0016365726635599988 -0.00015601671694040944 0.0
0.0016791903033830595 -0.0001626729298637776 0.0
0.0016376362417487148 -0.00016933923892162458 0.0
0.0016770884389961044 -0.00017614613170444064 0.0
0.0016365826863923272 -0.00018316370659577543 0.0
0.001604191479177213 -4.494612715465839e-7 0.0
0.0016749475011715357 -0.0001900001576076302 0.0
0.0016015654680356334 -6.274114077325e-5 0.0
0.0015860444249375938 -0.0001396184301423173 0.0
0.0016322553652904268 -0.00019715177928382468 0.0
0.0016724840523319317 -0.00020420886178479554 0.0
0.001627971453764394 -0.00021201089418739549 0.0
0.00158847137227989 -0.00020357468771452033 0.0
0.001583078877925231 -0.00021914023457946845 0.0
0.0016683340063907276 -0.00021966316924711327 0.0
0.0017134342937605287 -0.00021130613229322837 0.0
0.0017239109749430076 -0.00014235097752021586 0.0
0.0017095472621180407 -0.00022721663127491502 0.0
0.0017574436918294735 -0.00021730342635629287 0.0
0.0017519661308939098 -0.0002347059839063277 0.0
0.0015440206978070588 -0.0002102822512841858 0.0
0.0015402386181210342 -0.00022551608051237518 0.0
0.0018013661257630905 -0.0002239139454823196 0.0
0.0014986909146406605 -0.00021615804276374788 0.0
0.0014974576591469833 -0.0002321037479223063 0.0
0.0017966965867218388 -0.00024153559312096814 0.0
0.0018445365025273957 -0.0002315470294876722 0.0
0.001453047122516161 -0.00022208857295202434 0.0
0.0014507471719036903 -0.00023847838479611346 0.0
0.0018408957788550587 -0.00024906610318500345 0.0
0.0018900952055601575 -0.00023846568116441273 0.0
0.0014075995579622786 -0.00022794886204809535 0.0
0.0014048699408125706 -0.00024528009602858895 0.0
0.0018862933535821003 -0.00025690341245641007 0.0
0.0019368394794854857 -0.000245248121968646 0.0
0.0013625359191573967 -0.0002328446905348013 0.0
0.0013568271224991425 -0.0002506673791740104 0.0
0.0019336179007414863 -0.00026416114257086723 0.0
0.0019844655628806665 -0.00025182977798062997 0.0
0.0013130392117225364 -0.0002376742930182129 0.0
0.001308520924498903 -0.0002564557920764946 0.0
0.001262157686646843 -0.00024353475557643438 0.0
0.0012665169401915029 -0.00022366453526685034 0.0
0.0018783913741944483 -0.0002750900859969742 0.0
0.001980958573364783 -0.0002714995308175391 0.0
0.0020328462002180137 -0.0002582601850553674 0.0
0.0020371938980227365 -0.0002380393694463681 0.0
0.0017365737819992825 -8.123975108436559e-5 0.0
0.002087561436014767 -0.00024406035820527896 0.0
0.002092346963840068 -0.0002230483476722382 0.0
0.0021443774012040928 -0.000228351494953424 0.0
0.0012615799090247742 -0.0002637706847988015 0.0
0.001213181680274772 -0.00024864770417462985 0.0
0.001307098752296773 -0.0002766052769166398 0.0
0.0020277878990202104 -0.00027897962505243716 0.0
0.0012132459574501976 -0.0002693623309452268 0.0
0.0011642941652796833 -0.00025306446115261257 0.0
0.0017576800794014455 -3.127439840980202e-5 0.0
0.0011642690477486402 -0.0002732936414032482 0.0
0.0011153855962707357 -0.0002567006504390891 0.0
0.0011155771148998873 -0.00027737034844444374 0.0
0.0010673635923158218 -0.00025924470788573684 0.0
0.0010661275824971933 -0.0002390962897031089 0.0
0.0010152252977737467 -0.0002421444546898892 0.0
0.001014774649364483 -0.00022087510324144525 0.0
0.0010618624265287572 -0.0002795731007660013 0.0
0.0009601045767263696 -0.00022408626978613855 0.0
0.0009592701910975893 -0.000202307963876199 0.0
0.0011162503837034326 -0.0002992025253679865 0.0
0.0010706044540989158 -0.00030312068926010595 0.0
0.0009058849541790917 -0.00020379036772399023 0.0
0.0009032347893283383 -0.0001825290319077676 0.0
0.0021506415730325147 -0.00020704245728842916 0.0
0.0022048090809674175 -0.00021199911081575508 0.0
0.0011168943127035599 -0.0003212889514062045 0.0
0.0010718752404033458 -0.0003250259377027357 0.0
0.0022117227664012608 -0.00018999463910841793 0.0
0.0022685433435155077 -0.00019505572286956742 0.0
0.002259111519876021 -0.00021919216003308783 0.0
0.0023233121000000995 -0.00020087847529450277 0.0
0.002314777511403451 -0.00022554796304111868 0.0
0.002379077429480811 -0.00020528732613247626 0.0
0.002373589227479353 -0.00022967310464763155 0.0
0.0024400840272311175 -0.00020681302798992323 0.0
0.002428933128452481 -0.00023175395647204272 0.0
0.0024455503050338635 -0.0001834272549549646 0.0
0.002496371629563763 -0.00020918661233873304 0.0
0.0024816200895714006 -0.00023401576955103687 0.0
0.0011181307702157143 -0.00034377923375351964 0.0
0.0008469822281672335 -0.00018340913435855238 0.0
0.0008432573420379165 -0.00016176871910077192 0.0
0.0024196895534348275 -0.00025725364922361214 0.0
0.002470140934191089 -0.00025905765548783733 0.0
0.0025310596036312847 -0.00023540055338448228 0.0
0.0024125275744876764 -0.00028315773139543984 0.0
0.001074219752751867 -0.0003476229711389092 0.0
0.002519486043433978 -0.0002599387934704018 0.0
0.002579098315024467 -0.00023562367561528723 0.0
0.001119322133220238 -0.000366892786313435 0.0