# vtk DataFile Version 2.0
phase field modeling fracture
ASCII
DATASET UNSTRUCTURED_GRID
POINTS 2538 float
0.0 0.0 0.0
10.0 0.0 0.0
0.0 10.0 0.0
10.0 10.0 0.0
0.0 4.9995 0.0
0.0 5.0005 0.0
5.0 5.0 0.0
0.9416964895726688 0.0 0.0
1.803581725054446 0.0 0.0
2.592419885431098 0.0 0.0
3.314401822861676 0.0 0.0
3.975193910351406 0.0 0.0
4.579982132660152 0.0 0.0
5.133512780936812 0.0 0.0
5.640130319506143 0.0 0.0
6.103810708661955 0.0 0.0
6.528192895506818 0.0 0.0
6.916607540127679 0.0 0.0
7.272102969376355 0.0 0.0
7.597469242948583 0.0 0.0
7.895259826292669 0.0 0.0
8.167811885738017 0.0 0.0
8.417264413845215 0.0 0.0
8.645575169389538 0.0 0.0
8.854535961159101 0.0 0.0
9.045786767735546 0.0 0.0
9.220828555767493 0.0 0.0
9.38103509633881 0.0 0.0
9.527663687265145 0.0 0.0
9.661865124984566 0.0 0.0
9.784692609918062 0.0 0.0
9.897110148790482 0.0 0.0
10.0 0.09999999999992584 0.0
10.0 0.199999999999856 0.0
10.0 0.2999999999997771 0.0
10.0 0.3999999999996677 0.0
10.0 0.4999999999995511 0.0
10.0 0.5999999999994683 0.0
10.0 0.6999999999993983 0.0
10.0 0.7999999999993286 0.0
10.0 0.8999999999992587 0.0
10.0 0.9999999999991888 0.0
10.0 1.099999999999119 0.0
10.0 1.199999999999033 0.0
10.0 1.299999999998852 0.0
10.0 1.399999999998576 0.0
10.0 1.499999999998284 0.0
10.0 1.599999999997992 0.0
10.0 1.6999999999977 0.0
10.0 1.799999999997408 0.0
10.0 1.899999999997116 0.0
10.0 1.999999999996825 0.0
10.0 2.099999999996533 0.0
10.0 2.199999999996241 0.0
10.0 2.299999999995949 0.0
10.0 2.399999999995657 0.0
10.0 2.499999999995365 0.0
10.0 2.599999999995073 0.0
10.0 2.699999999994782 0.0
10.0 2.79999999999449 0.0
10.0 2.899999999994198 0.0
10.0 2.999999999993906 0.0
10.0 3.099999999993614 0.0
10.0 3.199999999993322 0.0
10.0 3.299999999993029 0.0
10.0 3.399999999992738 0.0
10.0 3.499999999992446 0.0
10.0 3.599999999992154 0.0
10.0 3.699999999991863 0.0
10.0 3.799999999991571 0.0
10.0 3.899999999991278 0.0
10.0 3.999999999991022 0.0
10.0 4.099999999991035 0.0
10.0 4.199999999991187 0.0
10.0 4.299999999991338 0.0
10.0 4.399999999991491 0.0
10.0 4.499999999991642 0.0
10.0 4.599999999991795 0.0
10.0 4.699999999991947 0.0
10.0 4.799999999992099 0.0
10.0 4.89999999999225 0.0
10.0 4.999999999992403 0.0
10.0 5.099999999992555 0.0
10.0 5.199999999992706 0.0
10.0 5.299999999992858 0.0
10.0 5.39999999999301 0.0
10.0 5.499999999993161 0.0
10.0 5.599999999993313 0.0
10.0 5.699999999993466 0.0
10.0 5.799999999993618 0.0
10.0 5.899999999993771 0.0
10.0 5.999999999993922 0.0
10.0 6.099999999994074 0.0
10.0 6.199999999994227 0.0
10.0 6.299999999994378 0.0
10.0 6.39999999999453 0.0
10.0 6.499999999994682 0.0
10.0 6.599999999994833 0.0
10.0 6.699999999994986 0.0
10.0 6.799999999995138 0.0
10.0 6.899999999995289 0.0
10.0 6.999999999995442 0.0
10.0 7.099999999995594 0.0
10.0 7.199999999995747 0.0
10.0 7.299999999995897 0.0
10.0 7.39999999999605 0.0
10.0 7.499999999996202 0.0
10.0 7.599999999996353 0.0
10.0 7.699999999996505 0.0
10.0 7.799999999996658 0.0
10.0 7.899999999996808 0.0
10.0 7.999999999996962 0.0
10.0 8.099999999997113 0.0
10.0 8.199999999997265 0.0
10.0 8.299999999997418 0.0
10.0 8.399999999997569 0.0
10.0 8.499999999997721 0.0
10.0 8.599999999997873 0.0
10.0 8.699999999998024 0.0
10.0 8.799999999998176 0.0
10.0 8.899999999998329 0.0
10.0 8.99999999999848 0.0
10.0 9.099999999998634 0.0
10.0 9.199999999998786 0.0
10.0 9.299999999998937 0.0
10.0 9.399999999999089 0.0
10.0 9.499999999999241 0.0
10.0 9.599999999999392 0.0
10.0 9.699999999999545 0.0
10.0 9.799999999999697 0.0
10.0 9.899999999999848 0.0
9.897110148790565 10.0 0.0
9.784692609918244 10.0 0.0
9.66186512498486 10.0 0.0
9.527663687265571 10.0 0.0
9.381035096339392 10.0 0.0
9.220828555768257 10.0 0.0
9.045786767736512 10.0 0.0
8.854535961160305 10.0 0.0
8.645575169391027 10.0 0.0
8.417264413847017 10.0 0.0
8.167811885740178 10.0 0.0
7.895259826295246 10.0 0.0
7.597469242951631 10.0 0.0
7.272102969379938 10.0 0.0
6.916607540131873 10.0 0.0
6.528192895511704 10.0 0.0
6.103810708667616 10.0 0.0
5.640130319512691 10.0 0.0
5.13351278094435 10.0 0.0
4.579982132668816 10.0 0.0
3.975193910361222 10.0 0.0
3.314401822869852 10.0 0.0
2.592419885437257 10.0 0.0
1.803581725058137 10.0 0.0
0.9416964895740705 10.0 0.0
0.0 9.00010000000243 0.0
0.0 8.000200000005481 0.0
0.0 7.000300000005135 0.0
0.0 6.000400000002569 0.0
0.901790731451151 5.000409820926855 0.0
1.657200899774397 5.000334279910023 0.0
2.289991063707192 5.000271000893629 0.0
2.820065163538221 5.000217993483646 0.0
3.264096435579811 5.000173590356442 0.0
3.636051481595835 5.00013639485184 0.0
3.947629914072366 5.000105237008593 0.0
4.208632181002628 5.0000791367819 0.0
4.427267949625672 5.000057273205037 0.0
4.610414277633563 5.000038958572237 0.0
4.763831845154243 5.000023616815485 0.0
4.892346298799659 5.00001076537012 0.0
4.892346298799748 4.99998923462988 0.0
4.763831845154455 4.999976383184515 0.0
4.610414277633943 4.999961041427763 0.0
4.427267949626277 4.999942726794963 0.0
4.208632181003523 4.9999208632181 0.0
3.94762991407365 4.999894762991407 0.0
3.636051481597624 4.99986360514816 0.0
3.264096435582253 4.999826409643559 0.0
2.820065163541503 4.999782006516354 0.0
2.289991063711534 4.999728999106371 0.0
1.657200899778495 4.999665720089978 0.0
0.9017907314530094 4.999590179073145 0.0
0.0 3.999600000002013 0.0
0.0 2.999700000005187 0.0
0.0 1.99980000000512 0.0
0.0 0.9999000000025537 0.0
9.897889398521345 2.93573355845387 0.0
9.906568249974548 7.060009441434234 0.0
9.913122631074113 3.64016132281653 0.0
9.922462129543863 6.354535290629151 0.0
9.917693659967533 4.354211663134567 0.0
9.909873057440208 5.637584487339942 0.0
9.914183254994697 4.950672966925282 0.0
9.913885043715895 7.666887930262611 0.0
9.91009668007573 2.351889069770817 0.0
9.905135696074536 8.138152454502785 0.0
9.913397459621809 1.849999999997262 0.0
7.099302372137626 0.297750452375005 0.0
7.095143729410097 9.700359990366296 0.0
4.942912558701401 5.095838627899509 0.0
4.315009232304429 5.165022115481685 0.0
4.946182472483878 4.906763777264103 0.0
4.317967462990024 4.825955043772673 0.0
9.916390871492647 8.64999999999792 0.0
9.921504649680616 1.368376469890358 0.0
8.292538149791614 0.206877570318844 0.0
8.292538149793597 9.793122429681448 0.0
5.884594439766573 9.587645267048616 0.0
5.794826292691579 0.3794853783929359 0.0
9.913397459621425 9.049999999998557 0.0
9.908526577714177 0.9568239351922434 0.0
3.456851160380649 5.315740054130451 0.0
3.457889657868442 4.707121019609468 0.0
8.945214200703926 0.1503383337970344 0.0
8.950161364448409 9.8413906539257 0.0
9.913862335499305 4.055887885208452 0.0
9.916697353372683 4.650158482607802 0.0
9.919076340414442 6.049999999994006 0.0
9.906994308667635 5.25749687748192 0.0
9.917490342358025 6.655979201891897 0.0
9.915757520293784 7.343848891656911 0.0
9.910049507471042 3.363474386285078 0.0
9.914471988502868 2.647400064832979 0.0
9.91474124160965 9.337490423485129 0.0
9.916971008170838 0.6499999999994355 0.0
4.307157269264427 9.509674045029644 0.0
4.331527375865619 0.4401616696422582 0.0
9.45434939180249 9.878397030523757 0.0
9.457696120412969 0.1270877537061785 0.0
2.555070293622606 5.422044496190925 0.0
2.566232917480916 4.608001224030952 0.0
3.026511860837692 9.332320638257093 0.0
2.945561971800619 0.5895662714727601 0.0
7.7395404387124 0.2511088946967771 0.0
7.736379255744154 9.745848826372828 0.0
4.687135269408529 5.122111433928926 0.0
4.688420821504113 4.871895064967488 0.0
9.910554884115975 0.3448356354522978 0.0
9.911230082250466 9.65764729394159 0.0
9.921953841410854 6.851023993342036 0.0
9.912065178606017 5.448170483544033 0.0
9.911660025326261 3.861846960030188 0.0
9.914847467973438 3.14501593945607 0.0
9.913397459621425 5.849999999993703 0.0
9.913397459621425 7.849999999996735 0.0
9.906916878988277 2.15455769998631 0.0
9.913397459621425 8.349999999997479 0.0
9.909472363117661 1.640528221515488 0.0
9.913987325695956 1.152857110636247 0.0
9.913397459621425 8.849999999998241 0.0
0.9100099990995943 2.614215977520411 0.0
0.8395284981715456 7.451196254860987 0.0
9.723278867451556 9.898135916635193 0.0
9.723316350887044 0.09841820909386662 0.0
1.385819164827588 4.454539963646463 0.0
1.338343629665047 5.523111536005823 0.0
1.377179700550677 0.6809168304959698 0.0
1.418060461092743 9.285896715136046 0.0
9.91268220142518 0.1457914080939694 0.0
9.906737126737994 9.845745933882352 0.0
0.7108351382691361 6.537941170074089 0.0
1.527735020267026 6.915620208855231 0.0
1.630993885659103 7.838271825205868 0.0
2.232760943566823 7.370850737296832 0.0
2.243414218068206 6.688299277952821 0.0
2.779655053105118 7.021588754814074 0.0
2.80227799359795 7.632420170547022 0.0
3.282022065908813 7.305859666021318 0.0
3.327597298795347 7.857554136825748 0.0
3.743210251018715 7.549183328204379 0.0
3.716353232200752 7.062036086888612 0.0
4.111978858674101 7.27497101169417 0.0
4.104192177581432 6.879858986267289 0.0
4.436230765617037 7.045693351607117 0.0
4.430360014817357 6.703971783962796 0.0
4.732390145036301 6.849841042423394 0.0
5.056161327708878 5.095276573498806 0.0
5.111586796021131 4.999081142133581 0.0
5.169267363407189 5.09444870412406 0.0
5.223795108752053 4.996986220359468 0.0
5.281480803887719 5.092780870372803 0.0
5.335670761900611 4.994887492556936 0.0
5.393485214772442 5.090486192743301 0.0
5.447323082877892 4.992601527033996 0.0
5.505243219343024 5.087953380710069 0.0
5.558739102026105 4.990287787962959 0.0
5.616491581184779 5.085335255235766 0.0
5.669852346908056 4.9879269227514 0.0
5.727502713908907 5.082679981817038 0.0
5.780766004135139 4.988313988715834 0.0
5.838244881129535 5.080480568766611 0.0
5.891357695677371 4.986433849408193 0.0
5.948696036767613 5.077969900389505 0.0
6.001601341641615 4.981313698556656 0.0
6.058851024265095 5.074871552128682 0.0
6.111614020704875 4.978360695880202 0.0
6.168801161530775 5.072044953270978 0.0
6.221368818778567 4.975825765213497 0.0
6.278268309066882 5.066182320461055 0.0
6.330814273567539 4.972837984645718 0.0
6.387565032421376 5.062889771971895 0.0
6.437476667631405 4.971693683589553 0.0
[...]
POINT_DATA 2538
VECTORS disp float
1.3101687017766985e-11 2.47983497677894e-11 0.0
1.2902412370754556e-11 -3.039772758245702e-11 0.0
0.002099999998957399 5.034466781639105e-12 0.0
0.002099999974910612 -6.191432853777373e-11 0.0
0.0008354338619772674 0.00035149651770484636 0.0
0.0015574351014092161 6.050294148206207e-5 0.0
0.0011098680181440526 -1.3741719399549503e-6 0.0
-2.386916671990141e-13 -3.1101539909363247e-12 0.0
2.9237574975707683e-12 1.926351718027113e-12 0.0
2.010636866173931e-12 -3.478503307151833e-13 0.0
1.7637436231441924e-12 -1.7503343930212795e-13 0.0
1.1312946457442327e-12 -2.6125774899601686e-13 0.0
1.0676039328208173e-12 -6.437036842527724e-13 0.0
8.377920342317097e-13 -7.699544878728354e-13 0.0
7.058016118029613e-13 -1.1526427841511355e-12 0.0
4.553182512084394e-13 -1.5405047615964266e-12 0.0
6.648806738763908e-13 -2.081487537337182e-12 0.0
6.527966296176876e-13 -2.5997561967764154e-12 0.0
7.804186416356733e-13 -3.128435766071167e-12 0.0
9.203563913431167e-13 -3.642983153913144e-12 0.0
9.59814801382472e-13 -3.947478228435951e-12 0.0
1.2048488577675046e-12 -4.4583484860624185e-12 0.0
1.2176165098561947e-12 -4.6369808158462715e-12 0.0
1.3198696685084902e-12 -5.05291284648253e-12 0.0
1.4970399005903125e-12 -5.370311811234079e-12 0.0
1.507275231887843e-12 -5.652342960247704e-12 0.0
1.6330226025117682e-12 -6.044388709686659e-12 0.0
1.8098483180980642e-12 -6.4670535519810685e-12 0.0
2.0279134873135035e-12 -7.018329524798689e-12 0.0
1.950234266040129e-12 -7.632228467458538e-12 0.0
3.070018040468922e-12 -9.610881311706671e-12 0.0
8.889419721708543e-13 -7.0440716006662055e-12 0.0
3.024578475466556e-5 -2.3296792721567932e-5 0.0
5.297997346842003e-5 -3.975434586933367e-5 0.0
7.509169891500092e-5 -5.420668288597429e-5 0.0
9.583664821563813e-5 -6.737179035436323e-5 0.0
0.0001155375007323897 -7.962393150827822e-5 0.0
0.00013462767988847157 -9.142686058926393e-5 0.0
0.00015346437954556898 -0.00010264018206634557 0.0
0.00017179982747990509 -0.00011345371420782127 0.0
0.0001898429292492558 -0.0001240002299360931 0.0
0.00020769885756434292 -0.00013420630647903073 0.0
0.00022532055520542817 -0.00014422637944940436 0.0
0.00024290941025396586 -0.00015400413830304297 0.0
0.00026037468931791434 -0.00016353704418102728 0.0
0.00027780155300283823 -0.0001729605961846265 0.0
0.00029523203747266487 -0.0001821741927190164 0.0
0.00031252622130687775 -0.00019113779667254073 0.0
0.0003298412569751044 -0.00019995903852868414 0.0
0.00034723215886310404 -0.00020852354277178553 0.0
0.00036464223937356745 -0.00021691304560362185 0.0
0.0003821083507285204 -0.00022513592974104116 0.0
0.0003996235375550672 -0.00023319425907353096 0.0
0.0004172054665370118 -0.00024108300016103162 0.0
0.00043496065655075763 -0.0002488183643665679 0.0
0.0004526836707316275 -0.0002563963587394786 0.0
0.0004706368047107517 -0.00026380597252252685 0.0
0.0004885577117457249 -0.00027105449491211293 0.0
0.00050663860667066 -0.00027816831106028297 0.0
0.0005248148000619845 -0.0002850959577369696 0.0
0.0005431947102020352 -0.0002918670351293385 0.0
0.0005615728551692914 -0.0002985437292277679 0.0
0.0005801679599511608 -0.00030508438069522974 0.0
0.0005988691009366562 -0.0003114831467334172 0.0
0.0006177563903758366 -0.0003178412757104652 0.0
0.0006368446665102531 -0.0003241038111129672 0.0
0.0006561422546541638 -0.0003304416763116063 0.0
0.0006754085401377106 -0.0003366158642823182 0.0
0.0006949630838953755 -0.0003426723252257549 0.0
0.0007145199894833334 -0.0003483729626365174 0.0
0.0007341190647167133 -0.00035379146814177697 0.0
0.0007538841120673408 -0.0003590518410535372 0.0
0.0007735983142771985 -0.0003639341039810329 0.0
0.0007936203581606054 -0.00036859571754289803 0.0
0.0008139355881438158 -0.0003728945052512359 0.0
0.0008344470807891027 -0.00037712261440991614 0.0
0.0008553405580537866 -0.00038097749598858496 0.0
0.0008763167944566236 -0.00038467371146196116 0.0
0.0008974740886036507 -0.0003882656706322318 0.0
0.0009188841003518616 -0.00039141015239766905 0.0
0.0009401439785871085 -0.00039459406926574105 0.0
0.0009617370978501508 -0.00039728499718161693 0.0
0.0009832926130824622 -0.0003998028359951338 0.0
0.0010051239584610316 -0.0004022318262446776 0.0
0.001026788360653475 -0.0004045098976980805 0.0
0.0010489727286171094 -0.00040653908898013866 0.0
0.001070912969818969 -0.00040835309526173695 0.0
0.0010936841361224982 -0.0004100463947977968 0.0
0.0011164866560503754 -0.0004116695993450176 0.0
0.0011394444026060142 -0.0004128678289112562 0.0
0.0011625341700456906 -0.0004138365429506751 0.0
0.0011857834118680392 -0.00041425584767250037 0.0
0.0012087918783120534 -0.00041449264259482325 0.0
0.0012313783089070252 -0.00041444469745136503 0.0
0.0012533729954251486 -0.0004142635866044708 0.0
0.0012742943201691868 -0.0004138086437870937 0.0
0.001294772704503305 -0.00041331184044350296 0.0
0.0013152404421233317 -0.0004125304592254875 0.0
0.0013345336526486447 -0.0004107559711780855 0.0
0.0013537434079933784 -0.0004082465432056064 0.0
0.0013739540413397772 -0.0004059373612377735 0.0
0.0013944085486422327 -0.00040378565837529724 0.0
0.001414366534674507 -0.00040149516873809053 0.0
0.0014354873612857362 -0.00039932549948651515 0.0
0.0014552587522721416 -0.0003965936241858499 0.0
0.0014748464707665726 -0.00039314693250511455 0.0
0.001495629839024585 -0.0003887381020437653 0.0
0.0015154651723880525 -0.000383440244199646 0.0
0.0015364693759903527 -0.00037775519289410696 0.0
0.001556684415545512 -0.00037145720582231417 0.0
0.0015772809377470338 -0.0003643478921456442 0.0
0.001597656812755089 -0.00035611411344716327 0.0
0.0016192825768094417 -0.00034754470740358604 0.0
0.0016395863420108018 -0.000338088124710267 0.0
0.0016602230416720874 -0.00032796909240947856 0.0
0.0016816004032478022 -0.0003167514862156673 0.0
0.0017028826214488914 -0.00030507080217393405 0.0
0.0017243519936388301 -0.0002931048085840384 0.0
0.0017464825100551296 -0.00028025671530700796 0.0
0.0017685601751504041 -0.000266727634593348 0.0
0.0017906651576253296 -0.00025258327189627016 0.0
0.0018133727303368179 -0.00023758982367355215 0.0
0.0018368649868350298 -0.00022154056495926692 0.0
0.0018608873750084196 -0.00020459465735039758 0.0
0.001885417052125584 -0.00018687318443494184 0.0
0.0019108195139982333 -0.00016808423556493064 0.0
0.001937550492651417 -0.00014791339623931938 0.0
0.0019652572048859717 -0.00012620668988796963 0.0
0.0019942389944464576 -0.00010246085945418255 0.0
0.0020257953681844386 -7.547778566068755e-5 0.0
0.0020589671865694115 -4.404362209361068e-5 0.0
0.002099999998049679 -8.85534494235044e-12 0.0
0.0020999999947153873 -1.1399339522686754e-11 0.0
0.002099999997703202 -4.444573608804026e-12 0.0
0.0020999999971839235 -3.8333440645803954e-12 0.0
0.0020999999976213535 -2.4618356931403094e-12 0.0
0.0020999999976283996 -1.6574661172122145e-12 0.0
0.0020999999976316517 -1.1410028281912086e-12 0.0
0.0020999999977507943 -7.679498815347954e-13 0.0
0.002099999997748313 -4.24013876210863e-13 0.0
0.0020999999978415598 -1.9214651067631136e-13 0.0
0.002099999997909504 -1.8348358273108566e-14 0.0
0.0020999999980348587 1.94246576818694e-13 0.0
0.002099999998072075 3.791552519768445e-13 0.0
0.0020999999981424493 6.27798909933771e-13 0.0
0.0020999999981736526 8.887669458386047e-13 0.0
0.00209999999819358 1.2062753260888614e-12 0.0
0.0020999999982121756 1.525554609350569e-12 0.0
0.0020999999981122976 1.9299482353426217e-12 0.0
0.0020999999982810077 2.22210276702883e-12 0.0
0.002099999998123204 2.5930235505759772e-12 0.0
0.0020999999982259723 2.8092554735629133e-12 0.0
0.002099999998199202 2.8652985324399127e-12 0.0
0.0020999999984139687 2.7479654554173216e-12 0.0
0.002099999998892195 2.9877577930722866e-12 0.0
0.0020999999993949964 1.927913033369518e-12 0.0
0.001962662044920004 4.860619445152529e-5 0.0
0.0018380469681703194 7.05000104310445e-5 0.0
0.001723820867966376 7.056401996999106e-5 0.0
0.0016214973581771 6.372865465847935e-5 0.0
0.0015573888635276513 -8.286284931149208e-6 0.0
0.0015546000699243623 -5.001063431644322e-5 0.0
0.001547700937638696 -8.899667582724368e-5 0.0
0.0015286958294478644 -0.00011111223305109087 0.0
0.001498168573349798 -0.00011782228163899497 0.0
0.0014615697883265842 -0.00011421693742074574 0.0
0.0014215672920041625 -0.00010449299345480803 0.0
0.0013804861000310028 -8.917904546721531e-5 0.0
0.0013378205372046046 -7.229421418258059e-5 0.0
0.0012937924694238303 -5.5047326030880736e-5 0.0
0.0012455796287973457 -3.754172857445291e-5 0.0
0.0011883859129509853 -2.0356770190474046e-5 0.0
0.0010571118246410784 4.111827285432931e-5 0.0
0.001018797394330695 6.336247696658824e-5 0.0
0.000986376180574108 8.016563089568594e-5 0.0
0.0009574522494373629 9.548172082200948e-5 0.0
0.0009306038480120746 0.00011025258177199435 0.0
0.0009061156635532087 0.00012510223625794863 0.0
0.0008835765851653715 0.00014086385775734963 0.0
0.0008638379100973638 0.00015704317568109843 0.0
0.0008485875172696597 0.00017812155885483169 0.0
0.0008365148087605777 0.00019683046306282213 0.0
0.0008371043322087453 0.0002332541403809951 0.0
0.0008325326628352914 0.00027606995664422455 0.0
0.0007553214079897871 0.00036646614499366293 0.0
0.0006488740871654098 0.00036526543014078327 0.0
0.0004912726283147025 0.00031368102617789157 0.0
0.0002790682437379396 0.0002064485388296497 0.0
0.0005455785868150043 -0.0002826345445407203 0.0
0.001408345382435349 -0.0003806199525226027 0.0
0.0006800461126832381 -0.0003276425151931288 0.0
0.0012651811494512884 -0.00039936315294934906 0.0
0.0008229923301674394 -0.00036288348635938797 0.0
0.0011015706588974816 -0.00039421898135497704 0.0
0.0009499734822914956 -0.00038185147342970023 0.0
0.0015330676737686769 -0.00035274304747743467 0.0
0.00044004546703127316 -0.00024266489283937992 0.0
0.0016328268335394354 -0.00031203070848357696 0.0
0.0003516238893908659 -0.00020305018509494664 0.0
3.335286118730279e-5 -8.190667744705485e-6 0.0
0.002056086762984109 -7.316289542099493e-7 0.0
0.0011833312982287446 5.2437124598061076e-6 0.0
0.001345522366428943 -6.353605906795704e-5 0.0
0.0010267461794272192 3.386615640037111e-5 0.0
0.0009183585181568283 0.00011271924360324394 0.0
0.0017420323148824464 -0.00025929050522854283 0.0
0.00026797833434456174 -0.00016122035567162112 0.0
2.7931810407179014e-5 -9.231790879462864e-6 0.0
0.0020679733698819097 -2.818370836633715e-6 0.0
0.002038984521238356 3.834996078322411e-6 0.0
4.008153632642397e-5 -2.0611680643539218e-6 0.0
0.0018333494737549551 -0.00020156731690214156 0.0
0.00019466751541123313 -0.00011927187539034486 0.0
0.0014608617071895016 -9.441758048139785e-5 0.0
0.0008391400693674909 0.00015688712552900224 0.0
2.2544879564167193e-5 -8.089000908505013e-6 0.0
0.0020747539039929325 -3.5422863175374146e-6 0.0
0.0007624135904846939 -0.00034940174318792575 0.0
0.0008852742137465824 -0.0003735510197634607 0.0
0.0011974052333334527 -0.00039863575040431014 0.0
0.001016558012390421 -0.00038763327433969616 0.0
0.0013275102972302524 -0.0003958321918864611 0.0
0.0014661106749731861 -0.00037167627616140736 0.0
0.0006264136524668186 -0.00031118216185210693 0.0
0.000493410409093249 -0.00026474887116927965 0.0
0.001903804976889504 -0.0001526966891438497 0.0
0.00013888500064411337 -8.679341465213397e-5 0.0
0.0020245666554383965 9.386358265912711e-6 0.0
5.697378893811645e-5 4.242227026454941e-6 0.0
0.00207986003908828 -5.78226248218551e-6 0.0
2.144655602302484e-5 -8.574032920448243e-6 0.0
0.0015362400432074306 -8.690610754959562e-5 0.0
0.0008038676339860569 0.0001907357744523182 0.0
0.0019987381556906695 1.1796277661085334e-5 0.0
9.17962703000056e-5 1.0248055967977944e-5 0.0
3.11943207834585e-5 -9.436333866863627e-6 0.0
0.002061828153386909 -2.232565633597775e-6 0.0
0.0012645748800219855 -2.9916376167391313e-5 0.0
0.0009741550842222112 8.07266049293014e-5 0.0
7.828156854918815e-5 -4.816219540591526e-5 0.0
0.0019925790361466546 -8.525139460222958e-5 0.0
0.001366091709910111 -0.00039069294928636885 0.0
0.0010588230382213664 -0.00039200460496721136 0.0
0.0007237874656294938 -0.0003394513443198358 0.0
0.0005852394304994124 -0.00029817623058329734 0.0
0.0011507530452137622 -0.00039680988875096613 0.0
0.0015711680425132047 -0.000339782555931348 0.0
0.00040481372714228244 -0.00022709508032827904 0.0
0.0016769980417640977 -0.00029318962051837915 0.0
0.0003148181385057118 -0.00018462793579739835 0.0
0.0002297551793571424 -0.0001396968358799305 0.0
0.0017870691302583003 -0.00023170253274028594 0.0
0.0005548007221470836 0.00019576053300833534 0.0
0.0017614804585120987 1.9589733971606066e-5 0.0
0.0020794370127785256 -1.042766040490412e-5 0.0
1.8416737616872764e-5 -8.334106803477441e-6 0.0
0.0007932922682911342 0.0002487404217496891 0.0
0.00157739729509204 -3.0389688872577423e-5 0.0
0.00011960443440660634 1.9384680923561808e-5 0.0
0.002007756854751874 1.0957984305207616e-5 0.0
3.4462666030468336e-5 -2.0174112621404522e-5 0.0
0.0020528679854101765 -3.6492832509772134e-5 0.0
0.0016667635982024036 1.1072509988747472e-5 0.0
0.001680559732029113 -7.553934221098895e-6 0.0
0.0017979665464065943 6.883467325319162e-6 0.0
0.001715949854607564 -2.558121959881635e-6 0.0
0.0016248246055293627 -2.416681821451703e-5 0.0
0.001643723760617704 -7.176551986044328e-6 0.0
0.0017348295977514196 8.878369863050847e-6 0.0
0.0016667271273099365 1.083143654935644e-5 0.0
0.0017567801866481849 1.9883825797948844e-5 0.0
0.0016941146952059055 2.447397204650854e-5 0.0
0.0016105733849223996 1.6134998387344164e-5 0.0
0.0016365184449988882 2.918663107745403e-5 0.0
0.001564927365010462 2.373633630489947e-5 0.0
0.001587163978296071 3.2970025376649354e-5 0.0
0.0015232545267497193 3.0158298254501498e-5 0.0
0.00154468372792469 3.549070647618031e-5 0.0
0.0011588807770410601 -7.120256721620388e-6 0.0
0.0010975525625924348 -1.924793515063116e-5 0.0
0.0011383259784249044 -1.8383741325844105e-5 0.0
0.0010866179206982694 -2.9510280280729476e-5 0.0
0.001123348477458766 -2.885532312186026e-5 0.0
0.0010779899067231854 -3.798988572351366e-5 0.0
0.0011111271709015466 -3.6795486438166795e-5 0.0
0.0010697940452662406 -4.486844503935733e-5 0.0
0.0011004581699526489 -4.327676098104164e-5 0.0
0.0010620778477412488 -5.069802120142156e-5 0.0
0.0010909951653753597 -4.8705516317496904e-5 0.0
0.0010548804634313521 -5.568410956114865e-5 0.0
0.0010825387631763434 -5.385555168400647e-5 0.0
0.0010490503779631024 -6.015420714833912e-5 0.0
0.0010748450021123364 -5.829401381865303e-5 0.0
0.0010426857233784687 -6.439912250314438e-5 0.0
0.0010675582868081362 -6.253478281597774e-5 0.0
0.0010356729386745763 -6.856696961126113e-5 0.0
0.0010606434256465785 -6.67663570245374e-5 0.0
0.001029751169878843 -7.250221820742967e-5 0.0
0.0010543205198562174 -7.093575027682599e-5 0.0
0.0010242119019375382 -7.647440399236949e-5 0.0
0.0010474788270386664 -7.512806691858533e-5 0.0
0.0010186538106106392 -8.058030441923699e-5 0.0
0.0010415902257877884 -7.94361283494608e-5 0.0
0.001013895590367599 -8.470121317339311e-5 0.0
0.0010360462947202633 -8.390210332409972e-5 0.0
0.0010077429405455298 -8.90543051740807e-5 0.0
0.0010304003226215765 -8.861509028580005e-5 0.0
0.000996517541755537 -9.448384253130805e-5 0.0
0.0010266031648211973 -9.344470928239116e-5 0.0
0.0009975720197279937 -9.88915156810554e-5 0.0
0.0010215003799615616 -9.861441412624449e-5 0.0
0.0009938862097948187 -0.00010402959408121127 0.0
0.0010169451116173226 -0.00010407725889836114 0.0
0.000991135379315329 -0.00010925888854790159 0.0
0.001012458917664298 -0.00010973575561626423 0.0
0.000987295003987883 -0.00011494986918692765 0.0
0.0010329723793084038 -5.0216161754519455e-5 0.0
0.001008088905992213 -0.00011568550812442638 0.0
0.00100465176110575 -7.356245041087448e-5 0.0
0.0009690873091658775 -0.00010086787944662656 0.0
0.0009817516577121177 -0.0001210205160740175 0.0
0.001003696670189843 -0.00012194014902756611 0.0
0.0009763304468918792 -0.00012753968082703394 0.0
0.0009550358135104167 -0.00012590464891246126 0.0
0.0009490082285029315 -0.0001326411162941387 0.0
0.0009983349675236758 -0.00012888720989911556 0.0
0.0010261375446961752 -0.00012292449514882784 0.0
0.0010482371732553853 -9.298560853508013e-5 0.0
0.001020920634790608 -0.00013022950846266305 0.0
0.0010506331594334773 -0.0001233322856130639 0.0
0.001044313307585765 -0.00013159693121010454 0.0
0.000927984334142516 -0.0001307212464451055 0.0
0.0009231254380204593 -0.00013711317406726281 0.0
0.001075081029452303 -0.00012413258404668428 0.0
0.0009006703870609425 -0.00013499247455455902 0.0
0.0008973363159220868 -0.00014146345556393175 0.0
0.001069286169844746 -0.00013266410429711985 0.0
0.0010990438791581274 -0.0001255829842814377 0.0
0.0008732743978906634 -0.0001390629691249637 0.0
0.0008694358308797244 -0.00014560694783315035 0.0
0.001093963515386621 -0.0001342251545717042 0.0
0.0011246863206134782 -0.0001267206238941759 0.0
0.0008460900481373119 -0.0001428313312936623 0.0
0.0008420354965908373 -0.0001496565517236155 0.0
0.0011194213608152757 -0.00013601226635770716 0.0
0.0011512073826550175 -0.00012786509426264251 0.0
0.0008192851253353536 -0.00014601950046120698 0.0
0.0008136253386014683 -0.00015296315019862892 0.0
0.0011462584299819921 -0.00013755676903624012 0.0
0.0011784265876402693 -0.0001289958647987481 0.0
0.0007899910868070033 -0.00014898672166372624 0.0
0.0007851026375793169 -0.00015612028852265332 0.0
0.0007597832750258567 -0.00015203727918630978 0.0
0.0007648159463666492 -0.00014470037947558363 0.0
0.0011120165812729796 -0.0001453912882170305 0.0
0.0011732615528614327 -0.00013930711911945443 0.0
0.001206321282469468 -0.00013018730903564723 0.0
0.0012122239009661631 -0.00011942597712066139 0.0
0.001075446411641547 -6.968159215542693e-5 0.0
0.0012415166431259592 -0.00012027130330959302 0.0
0.0012479005430620206 -0.00010902379961383305 0.0
0.001278420099102682 -0.0001093874186437067 0.0
0.0007572392643272785 -0.000159565785029693 0.0
0.0007308096405861582 -0.00015448625053963858 0.0
0.0007821976676940369 -0.0001638615536652598 0.0
0.0012001527159379354 -0.00014133842544727522 0.0
0.0007288026201885103 -0.0001621244556269807 0.0
0.0007019566292339669 -0.00015641031845372132 0.0
0.0011084123508857265 -5.095189149354029e-5 0.0
0.0007001878782062237 -0.00016374122422278706 0.0
0.0006732001058809634 -0.00015768337999898027 0.0
0.0006717512266041012 -0.00016508665344942722 0.0
0.0006450919449545488 -0.00015824290194630682 0.0
0.0006459069103274119 -0.00015117705013883168 0.0
0.0006158097765039935 -0.00015163359709197583 0.0
0.0006170784778193911 -0.0001442386771186369 0.0
0.0006405773678781714 -0.00016538103395555425 0.0
0.0005845147968272818 -0.00014434269089403488 0.0
0.0005854808763953104 -0.0001368547235914921 0.0
0.0006707597838178323 -0.00017300935338120324 0.0
0.0006442999868227472 -0.00017397045323214687 0.0
0.0005535428099428325 -0.00013603914716419404 0.0
0.0005531417602219885 -0.0001285979636896022 0.0
0.0012857393464297709 -9.797609665960645e-5 0.0
0.0013177124354902738 -9.808826292021463e-5 0.0
0.0006699631379485989 -0.00018117823001679036 0.0
0.0006440727786191202 -0.0001819819998904627 0.0
0.0013254345921055457 -8.637281313973087e-5 0.0
0.001359096035320445 -8.649078470082599e-5 0.0
0.0013496563583423509 -9.96203341092467e-5 0.0
0.0013916326350143311 -8.739158839145465e-5 0.0
0.0013828225803864582 -0.00010098594898281698 0.0
0.001425255323178126 -8.782619818032077e-5 0.0
0.0014185260814955796 -0.00010142287141691579 0.0
0.0014627887363060077 -8.69409985070111e-5 0.0
0.0014526463713832984 -0.00010121237832111809 0.0
0.0014690138075460675 -7.426839608689199e-5 0.0
0.0014974789858530559 -8.705977054686028e-5 0.0
0.0014853595907027208 -0.00010168820349344943 0.0
0.000669731831328514 -0.00018962623723238077 0.0
0.0005192351237889391 -0.00012713875390892192 0.0
0.0005178578687667612 -0.0001192951121351419 0.0
0.001443618293804862 -0.0001165359779006344 0.0
0.0014751679514562897 -0.00011714694212199749 0.0
0.0015164852559475576 -0.0001021906022158403 0.0
0.0014359425675858903 -0.0001327182632523671 0.0
0.0006446543679993349 -0.0001903859696764208 0.0
0.0015065189324798955 -0.00011785089133821227 0.0