# vtk DataFile Version 2.0
phase field modeling fracture
ASCII
DATASET UNSTRUCTURED_GRID
POINTS 2538 float
0.0 0.0 0.0
10.0 0.0 0.0
0.0 10.0 0.0
10.0 10.0 0.0
0.0 4.9995 0.0
0.0 5.0005 0.0
5.0 5.0 0.0
0.9416964895726688 0.0 0.0
1.803581725054446 0.0 0.0
2.592419885431098 0.0 0.0
3.314401822861676 0.0 0.0
3.975193910351406 0.0 0.0
4.579982132660152 0.0 0.0
5.133512780936812 0.0 0.0
5.640130319506143 0.0 0.0
6.103810708661955 0.0 0.0
6.528192895506818 0.0 0.0
6.916607540127679 0.0 0.0
7.272102969376355 0.0 0.0
7.597469242948583 0.0 0.0
7.895259826292669 0.0 0.0
8.167811885738017 0.0 0.0
8.417264413845215 0.0 0.0
8.645575169389538 0.0 0.0
8.854535961159101 0.0 0.0
9.045786767735546 0.0 0.0
9.220828555767493 0.0 0.0
9.38103509633881 0.0 0.0
9.527663687265145 0.0 0.0
9.661865124984566 0.0 0.0
9.784692609918062 0.0 0.0
9.897110148790482 0.0 0.0
10.0 0.09999999999992584 0.0
10.0 0.199999999999856 0.0
10.0 0.2999999999997771 0.0
10.0 0.3999999999996677 0.0
10.0 0.4999999999995511 0.0
10.0 0.5999999999994683 0.0
10.0 0.6999999999993983 0.0
10.0 0.7999999999993286 0.0
10.0 0.8999999999992587 0.0
10.0 0.9999999999991888 0.0
10.0 1.099999999999119 0.0
10.0 1.199999999999033 0.0
10.0 1.299999999998852 0.0
10.0 1.399999999998576 0.0
10.0 1.499999999998284 0.0
10.0 1.599999999997992 0.0
10.0 1.6999999999977 0.0
10.0 1.799999999997408 0.0
10.0 1.899999999997116 0.0
10.0 1.999999999996825 0.0
10.0 2.099999999996533 0.0
10.0 2.199999999996241 0.0
10.0 2.299999999995949 0.0
10.0 2.399999999995657 0.0
10.0 2.499999999995365 0.0
10.0 2.599999999995073 0.0
10.0 2.699999999994782 0.0
10.0 2.79999999999449 0.0
10.0 2.899999999994198 0.0
10.0 2.999999999993906 0.0
10.0 3.099999999993614 0.0
10.0 3.199999999993322 0.0
10.0 3.299999999993029 0.0
10.0 3.399999999992738 0.0
10.0 3.499999999992446 0.0
10.0 3.599999999992154 0.0
10.0 3.699999999991863 0.0
10.0 3.799999999991571 0.0
10.0 3.899999999991278 0.0
10.0 3.999999999991022 0.0
10.0 4.099999999991035 0.0
10.0 4.199999999991187 0.0
10.0 4.299999999991338 0.0
10.0 4.399999999991491 0.0
10.0 4.499999999991642 0.0
10.0 4.599999999991795 0.0
10.0 4.699999999991947 0.0
10.0 4.799999999992099 0.0
10.0 4.89999999999225 0.0
10.0 4.999999999992403 0.0
10.0 5.099999999992555 0.0
10.0 5.199999999992706 0.0
10.0 5.299999999992858 0.0
10.0 5.39999999999301 0.0
10.0 5.499999999993161 0.0
10.0 5.599999999993313 0.0
10.0 5.699999999993466 0.0
10.0 5.799999999993618 0.0
10.0 5.899999999993771 0.0
10.0 5.999999999993922 0.0
10.0 6.099999999994074 0.0
10.0 6.199999999994227 0.0
10.0 6.299999999994378 0.0
10.0 6.39999999999453 0.0
10.0 6.499999999994682 0.0
10.0 6.599999999994833 0.0
10.0 6.699999999994986 0.0
10.0 6.799999999995138 0.0
10.0 6.899999999995289 0.0
10.0 6.999999999995442 0.0
10.0 7.099999999995594 0.0
10.0 7.199999999995747 0.0
10.0 7.299999999995897 0.0
10.0 7.39999999999605 0.0
10.0 7.499999999996202 0.0
10.0 7.599999999996353 0.0
10.0 7.699999999996505 0.0
10.0 7.799999999996658 0.0
10.0 7.899999999996808 0.0
10.0 7.999999999996962 0.0
10.0 8.099999999997113 0.0
10.0 8.199999999997265 0.0
10.0 8.299999999997418 0.0
10.0 8.399999999997569 0.0
10.0 8.499999999997721 0.0
10.0 8.599999999997873 0.0
10.0 8.699999999998024 0.0
10.0 8.799999999998176 0.0
10.0 8.899999999998329 0.0
10.0 8.99999999999848 0.0
10.0 9.099999999998634 0.0
10.0 9.199999999998786 0.0
10.0 9.299999999998937 0.0
10.0 9.399999999999089 0.0
10.0 9.499999999999241 0.0
10.0 9.599999999999392 0.0
10.0 9.699999999999545 0.0
10.0 9.799999999999697 0.0
10.0 9.899999999999848 0.0
9.897110148790565 10.0 0.0
9.784692609918244 10.0 0.0
9.66186512498486 10.0 0.0
9.527663687265571 10.0 0.0
9.381035096339392 10.0 0.0
9.220828555768257 10.0 0.0
9.045786767736512 10.0 0.0
8.854535961160305 10.0 0.0
8.645575169391027 10.0 0.0
8.417264413847017 10.0 0.0
8.167811885740178 10.0 0.0
7.895259826295246 10.0 0.0
7.597469242951631 10.0 0.0
7.272102969379938 10.0 0.0
6.916607540131873 10.0 0.0
6.528192895511704 10.0 0.0
6.103810708667616 10.0 0.0
5.640130319512691 10.0 0.0
5.13351278094435 10.0 0.0
4.579982132668816 10.0 0.0
3.975193910361222 10.0 0.0
3.314401822869852 10.0 0.0
2.592419885437257 10.0 0.0
1.803581725058137 10.0 0.0
0.9416964895740705 10.0 0.0
0.0 9.00010000000243 0.0
0.0 8.000200000005481 0.0
0.0 7.000300000005135 0.0
0.0 6.000400000002569 0.0
0.901790731451151 5.000409820926855 0.0
1.657200899774397 5.000334279910023 0.0
2.289991063707192 5.000271000893629 0.0
2.820065163538221 5.000217993483646 0.0
3.264096435579811 5.000173590356442 0.0
3.636051481595835 5.00013639485184 0.0
3.947629914072366 5.000105237008593 0.0
4.208632181002628 5.0000791367819 0.0
4.427267949625672 5.000057273205037 0.0
4.610414277633563 5.000038958572237 0.0
4.763831845154243 5.000023616815485 0.0
4.892346298799659 5.00001076537012 0.0
4.892346298799748 4.99998923462988 0.0
4.763831845154455 4.999976383184515 0.0
4.610414277633943 4.999961041427763 0.0
4.427267949626277 4.999942726794963 0.0
4.208632181003523 4.9999208632181 0.0
3.94762991407365 4.999894762991407 0.0
3.636051481597624 4.99986360514816 0.0
3.264096435582253 4.999826409643559 0.0
2.820065163541503 4.999782006516354 0.0
2.289991063711534 4.999728999106371 0.0
1.657200899778495 4.999665720089978 0.0
0.9017907314530094 4.999590179073145 0.0
0.0 3.999600000002013 0.0
0.0 2.999700000005187 0.0
0.0 1.99980000000512 0.0
0.0 0.9999000000025537 0.0
9.897889398521345 2.93573355845387 0.0
9.906568249974548 7.060009441434234 0.0
9.913122631074113 3.64016132281653 0.0
9.922462129543863 6.354535290629151 0.0
9.917693659967533 4.354211663134567 0.0
9.909873057440208 5.637584487339942 0.0
9.914183254994697 4.950672966925282 0.0
9.913885043715895 7.666887930262611 0.0
9.91009668007573 2.351889069770817 0.0
9.905135696074536 8.138152454502785 0.0
9.913397459621809 1.849999999997262 0.0
7.099302372137626 0.297750452375005 0.0
7.095143729410097 9.700359990366296 0.0
4.942912558701401 5.095838627899509 0.0
4.315009232304429 5.165022115481685 0.0
4.946182472483878 4.906763777264103 0.0
4.317967462990024 4.825955043772673 0.0
9.916390871492647 8.64999999999792 0.0
9.921504649680616 1.368376469890358 0.0
8.292538149791614 0.206877570318844 0.0
8.292538149793597 9.793122429681448 0.0
5.884594439766573 9.587645267048616 0.0
5.794826292691579 0.3794853783929359 0.0
9.913397459621425 9.049999999998557 0.0
9.908526577714177 0.9568239351922434 0.0
3.456851160380649 5.315740054130451 0.0
3.457889657868442 4.707121019609468 0.0
8.945214200703926 0.1503383337970344 0.0
8.950161364448409 9.8413906539257 0.0
9.913862335499305 4.055887885208452 0.0
9.916697353372683 4.650158482607802 0.0
9.919076340414442 6.049999999994006 0.0
9.906994308667635 5.25749687748192 0.0
9.917490342358025 6.655979201891897 0.0
9.915757520293784 7.343848891656911 0.0
9.910049507471042 3.363474386285078 0.0
9.914471988502868 2.647400064832979 0.0
9.91474124160965 9.337490423485129 0.0
9.916971008170838 0.6499999999994355 0.0
4.307157269264427 9.509674045029644 0.0
4.331527375865619 0.4401616696422582 0.0
9.45434939180249 9.878397030523757 0.0
9.457696120412969 0.1270877537061785 0.0
2.555070293622606 5.422044496190925 0.0
2.566232917480916 4.608001224030952 0.0
3.026511860837692 9.332320638257093 0.0
2.945561971800619 0.5895662714727601 0.0
7.7395404387124 0.2511088946967771 0.0
7.736379255744154 9.745848826372828 0.0
4.687135269408529 5.122111433928926 0.0
4.688420821504113 4.871895064967488 0.0
9.910554884115975 0.3448356354522978 0.0
9.911230082250466 9.65764729394159 0.0
9.921953841410854 6.851023993342036 0.0
9.912065178606017 5.448170483544033 0.0
9.911660025326261 3.861846960030188 0.0
9.914847467973438 3.14501593945607 0.0
9.913397459621425 5.849999999993703 0.0
9.913397459621425 7.849999999996735 0.0
9.906916878988277 2.15455769998631 0.0
9.913397459621425 8.349999999997479 0.0
9.909472363117661 1.640528221515488 0.0
9.913987325695956 1.152857110636247 0.0
9.913397459621425 8.849999999998241 0.0
0.9100099990995943 2.614215977520411 0.0
0.8395284981715456 7.451196254860987 0.0
9.723278867451556 9.898135916635193 0.0
9.723316350887044 0.09841820909386662 0.0
1.385819164827588 4.454539963646463 0.0
1.338343629665047 5.523111536005823 0.0
1.377179700550677 0.6809168304959698 0.0
1.418060461092743 9.285896715136046 0.0
9.91268220142518 0.1457914080939694 0.0
9.906737126737994 9.845745933882352 0.0
0.7108351382691361 6.537941170074089 0.0
1.527735020267026 6.915620208855231 0.0
1.630993885659103 7.838271825205868 0.0
2.232760943566823 7.370850737296832 0.0
2.243414218068206 6.688299277952821 0.0
2.779655053105118 7.021588754814074 0.0
2.80227799359795 7.632420170547022 0.0
3.282022065908813 7.305859666021318 0.0
3.327597298795347 7.857554136825748 0.0
3.743210251018715 7.549183328204379 0.0
3.716353232200752 7.062036086888612 0.0
4.111978858674101 7.27497101169417 0.0
4.104192177581432 6.879858986267289 0.0
4.436230765617037 7.045693351607117 0.0
4.430360014817357 6.703971783962796 0.0
4.732390145036301 6.849841042423394 0.0
5.056161327708878 5.095276573498806 0.0
5.111586796021131 4.999081142133581 0.0
5.169267363407189 5.09444870412406 0.0
5.223795108752053 4.996986220359468 0.0
5.281480803887719 5.092780870372803 0.0
5.335670761900611 4.994887492556936 0.0
5.393485214772442 5.090486192743301 0.0
5.447323082877892 4.992601527033996 0.0
5.505243219343024 5.087953380710069 0.0
5.558739102026105 4.990287787962959 0.0
5.616491581184779 5.085335255235766 0.0
5.669852346908056 4.9879269227514 0.0
5.727502713908907 5.082679981817038 0.0
5.780766004135139 4.988313988715834 0.0
5.838244881129535 5.080480568766611 0.0
5.891357695677371 4.986433849408193 0.0
5.948696036767613 5.077969900389505 0.0
6.001601341641615 4.981313698556656 0.0
6.058851024265095 5.074871552128682 0.0
6.111614020704875 4.978360695880202 0.0
6.168801161530775 5.072044953270978 0.0
6.221368818778567 4.975825765213497 0.0
6.278268309066882 5.066182320461055 0.0
6.330814273567539 4.972837984645718 0.0
6.387565032421376 5.062889771971895 0.0
6.437476667631405 4.971693683589553 0.0
[...]
POINT_DATA 2538
VECTORS disp float
1.8971411741412427e-11 4.890512066333512e-11 0.0
4.002736985928116e-11 -1.094975568609504e-10 0.0
0.00449999998408374 4.243516827839752e-11 0.0
0.004499999959032379 -1.1324437216749728e-10 0.0
0.0014253722793971524 0.0005945743553025792 0.0
0.0032419296678444964 0.00039099175803651446 0.0
0.002215856326367791 0.00014135884922749555 0.0
5.359265296992364e-12 5.173156272662767e-12 0.0
9.634397571839124e-12 1.1948552426819424e-11 0.0
8.907530980468176e-12 7.525929678544111e-12 0.0
8.812278199916432e-12 6.9958089887485254e-12 0.0
8.33819993207123e-12 5.2778433225469135e-12 0.0
7.85087271922036e-12 3.852868410264138e-12 0.0
7.404813427181085e-12 2.31324273827734e-12 0.0
7.045483977799457e-12 6.815970853780553e-13 0.0
6.231911544653351e-12 -1.1168593564010659e-12 0.0
6.53355285622472e-12 -2.7031770673265202e-12 0.0
6.239446768306202e-12 -4.513655390181338e-12 0.0
6.199662068832171e-12 -6.438778677512202e-12 0.0
6.336767440154713e-12 -8.357979824024236e-12 0.0
6.244420005607003e-12 -1.018953394738313e-11 0.0
6.555401680719557e-12 -1.2376158851361485e-11 0.0
6.534410827385111e-12 -1.4248009246276885e-11 0.0
6.876925939481559e-12 -1.6421855849534753e-11 0.0
6.972906389860104e-12 -1.8906287569696973e-11 0.0
7.2554990512221826e-12 -2.123587387450193e-11 0.0
7.555270637201574e-12 -2.400713243232658e-11 0.0
7.949539089897381e-12 -2.7094830085368054e-11 0.0
8.693031086573438e-12 -3.0781221917962357e-11 0.0
8.700485728297652e-12 -3.469658993062859e-11 0.0
1.1733884363922465e-11 -4.3437500997466636e-11 0.0
4.991710593206323e-12 -3.9938206472703235e-11 0.0
5.545772677993888e-5 -7.52713109853164e-5 0.0
9.569301597220874e-5 -0.0001301499504653386 0.0
0.00013471500491412793 -0.00017808003256553987 0.0
0.00017211426049729337 -0.0002217121320988185 0.0
0.00020839593590569634 -0.0002623158365372759 0.0
0.00024431316247290136 -0.00030087091147481393 0.0
0.0002804513793360764 -0.00033754614802825034 0.0
0.00031646538732210683 -0.0003726219988980878 0.0
0.00035266404839330275 -0.00040640038701322134 0.0
0.00038912810920228375 -0.0004388923056608966 0.0
0.0004258798689311951 -0.0004703622387960933 0.0
0.00046318135929265694 -0.0005008304216075562 0.0
0.0005007482189102376 -0.0005302930452383003 0.0
0.0005387726572088368 -0.000558964277362717 0.0
0.0005774714497906988 -0.0005868077531765595 0.0
0.0006164218485584037 -0.0006137804447408677 0.0
0.0006558912153835586 -0.0006400355202724895 0.0
0.0006958630214294416 -0.0006654566094256187 0.0
0.0007363095135813364 -0.0006901793185259187 0.0
0.0007772492093061104 -0.0007142019853409405 0.0
0.0008187313239233076 -0.0007375282560948372 0.0
0.000860650375498421 -0.0007601371324920872 0.0
0.0009032512965141699 -0.0007821429020571979 0.0
0.0009461412777993465 -0.0008034043566132245 0.0
0.0009897597502492405 -0.0008240434505670341 0.0
0.0010336320989406647 -0.0008439462749226041 0.0
0.001078067005058239 -0.0008632350655949611 0.0
0.0011229003199956086 -0.0008817755073391519 0.0
0.0011683721824063827 -0.0008997309965076825 0.0
0.0012140692007733638 -0.0009169752189983348 0.0
0.0012603916794637698 -0.000933604173013083 0.0
0.0013070766834717346 -0.0009494932950850677 0.0
0.0013542297171217485 -0.0009647327602888364 0.0
0.0014016997476865394 -0.0009792599986831515 0.0
0.0014497497156191817 -0.0009931530036611349 0.0
0.0014979820278015305 -0.0010062849717363145 0.0
0.0015466494548928794 -0.0010187378811777096 0.0
0.001595616229868608 -0.0010304225987090145 0.0
0.0016449409634253368 -0.0010413709302468709 0.0
0.0016945421146066211 -0.001051652826642417 0.0
0.001744388610566763 -0.0010611170321077243 0.0
0.0017945500735878739 -0.0010699181539824095 0.0
0.001844958924253384 -0.0010779173743644703 0.0
0.001895510279500486 -0.0010852311935125906 0.0
0.0019462983967501865 -0.0010916825442020802 0.0
0.001997083548972823 -0.001097429025550628 0.0
0.0020480730952934624 -0.0011024244535672387 0.0
0.0020990828445044403 -0.0011065743155332503 0.0
0.002150117206867312 -0.0011100263278695135 0.0
0.00220129433263565 -0.001112627611970515 0.0
0.0022519935286720583 -0.0011142585810331614 0.0
0.002303165349099066 -0.0011152397855804055 0.0
0.002352902716589467 -0.0011151515701638267 0.0
0.002403377996346351 -0.001114139752431141 0.0
0.0024516237452060757 -0.0011119643541427052 0.0
0.0025015388988431538 -0.0011090282979204218 0.0
0.0025498390380551666 -0.0011048963483799511 0.0
0.0025981807941351984 -0.0010989991077738847 0.0
0.0026467366166728393 -0.0010919777116302734 0.0
0.002695694176572012 -0.0010832689918675552 0.0
0.002744754771234753 -0.001073591189927989 0.0
0.002794117180764395 -0.0010626453071654754 0.0
0.0028436381650189424 -0.0010508629074063444 0.0
0.0028931955836029705 -0.0010379600556702049 0.0
0.002942841404548735 -0.0010241987992898232 0.0
0.002992361051534243 -0.0010098343723673184 0.0
0.003041492117494473 -0.0009946329547527557 0.0
0.0030903793400858647 -0.0009788298760803086 0.0
0.0031390712199570302 -0.0009622685610345844 0.0
0.003187483312869888 -0.0009449476508132065 0.0
0.00323537882933379 -0.0009270433005930141 0.0
0.0032831781870174066 -0.0009083730615677343 0.0
0.0033303527416265175 -0.0008890241179114594 0.0
0.003377131709948562 -0.0008691140816441984 0.0
0.0034236795818416684 -0.0008483912721048651 0.0
0.003469567632298725 -0.0008271109660894594 0.0
0.00351515604264456 -0.0008051578731754505 0.0
0.003560253554496746 -0.0007825278858718446 0.0
0.003605008978915697 -0.000759228206329266 0.0
0.0036493202218958135 -0.0007351572779462824 0.0
0.0036932396761817084 -0.0007103562828717541 0.0
0.0037365263540729693 -0.0006849264724418982 0.0
0.003779501339323533 -0.0006587833431190062 0.0
0.0038221216859065797 -0.0006318461965155547 0.0
0.0038642209339710518 -0.0006041364944064796 0.0
0.003905988265809609 -0.0005756857633102783 0.0
0.003947532003388329 -0.0005462938393162504 0.0
0.003988568003695892 -0.0005159944147104192 0.0
0.004029201876593889 -0.00048483893445795743 0.0
0.004069770093840989 -0.00045264775809440434 0.0
0.0041102342414884585 -0.00041926185699369236 0.0
0.004150363270083302 -0.00038460656166161545 0.0
0.004190260507557891 -0.00034862330936270586 0.0
0.004230276339733561 -0.0003110392732477927 0.0
0.0042708925381805245 -0.0002714409227045797 0.0
0.004311562969504164 -0.00022956594093922222 0.0
0.004352774848929499 -0.00018446942847145134 0.0
0.00439650368908229 -0.00013472642726405394 0.0
0.004441398240635109 -7.779038868680023e-5 0.0
0.004499999994436181 -3.789836887468163e-11 0.0
0.0044999999874989665 -4.1943976450054994e-11 0.0
0.004499999990939941 -3.0461423150144446e-11 0.0
0.004499999990882506 -2.7236373720175195e-11 0.0
0.004499999991432281 -2.34485658581501e-11 0.0
0.004499999991853924 -2.0478906586922545e-11 0.0
0.0044999999920126476 -1.8118902196605058e-11 0.0
0.004499999992307589 -1.5986989029042962e-11 0.0
0.004499999992391558 -1.398621006047734e-11 0.0
0.004499999992539709 -1.2032539507383232e-11 0.0
0.004499999992883023 -1.044996925777685e-11 0.0
0.004499999992800104 -8.373552287071462e-12 0.0
0.004499999992963494 -6.822755966604576e-12 0.0
0.00449999999304241 -5.023416883182044e-12 0.0
0.004499999993049002 -3.306110304797728e-12 0.0
0.0044999999929839244 -1.5110820859342429e-12 0.0
0.004499999992976901 2.3317568578850435e-13 0.0
0.004499999992319761 2.172522038828485e-12 0.0
0.004499999992729985 3.71856290420526e-12 0.0
0.004499999991689285 5.660322003274073e-12 0.0
0.004499999991669514 6.930849081936526e-12 0.0
0.0044999999912789775 8.318628715012753e-12 0.0
0.004499999991609831 8.733871962373028e-12 0.0
0.004499999991355935 1.2280081778031184e-11 0.0
0.0044999999953662965 5.841498381631329e-12 0.0
0.004170306633729658 0.00025252641921349426 0.0
0.0038800982077882035 0.000367642246684958 0.0
0.003614087814866593 0.0004126233754936786 0.0
0.0033879767898559766 0.00041027685139733046 0.0
0.0032334793570580316 0.00025408041222393967 0.0
0.0032097290839421784 0.0001816449611793919 0.0
0.0031611247068655183 0.00014880789233608194 0.0
0.0031032492036344047 0.00013553094953975338 0.0
0.003035240510217166 0.0001348439458092335 0.0
0.0029609856864115424 0.00013849767975359682 0.0
0.002881724694110826 0.0001435798863408602 0.0
0.002798870208777163 0.0001507903938189939 0.0
0.0027108649586810134 0.00015673440483618487 0.0
0.002616978564982608 0.00016055650556175794 0.0
0.0025128043922325125 0.00016216906199854425 0.0
0.002387455306237674 0.00016287885661601985 0.0
0.0020500591085497464 0.00018295553768485787 0.0
0.0019335539844755405 0.00019487972841703252 0.0
0.0018375955272431895 0.0001986863317557829 0.0
0.0017541065326610056 0.00020083790640904847 0.0
0.0016786140618249997 0.00020296356978020147 0.0
0.0016104755167566174 0.0002060568898535244 0.0
0.0015495229051944398 0.00021163724043011682 0.0
0.0014978206115747 0.00022177605071405397 0.0
0.0014576378261693618 0.0002423705826088849 0.0
0.0014306117659859674 0.0002788987348585653 0.0
0.001420484900451386 0.0003405675716298764 0.0
0.0014211534860294752 0.0004404992618690283 0.0
0.001253633206876082 0.0006042892999663544 0.0
0.0010091643651465056 0.0005654886443854741 0.0
0.0007010296580889856 0.0004669411344580605 0.0
0.0003702369145375687 0.00030610982386461037 0.0
0.0011780367508566001 -0.0008615519838217693 0.0
0.0032246765002504475 -0.0008861247576974145 0.0
0.0015129055901219118 -0.0009714092233897452 0.0
0.0028766129835559244 -0.001001087852007399 0.0
0.0018693120709720877 -0.0010430161840069756 0.0
0.0025225093099291085 -0.001059997472494558 0.0
0.0021748009372847266 -0.0010702702255361329 0.0
0.0035086820724933455 -0.0007709893027861708 0.0
0.0009187485717387409 -0.0007562738915099325 0.0
0.003719973951116247 -0.000657609889872189 0.0
0.000708855885922869 -0.0006443183913994976 0.0
7.336541139063967e-5 -1.4281246144980164e-5 0.0
0.004425362045495149 -1.3889720290814398e-5 0.0
0.002416226676796841 0.00018136579390021774 0.0
0.00276763250766744 0.00017570621760013312 0.0
0.002017596383001715 0.0001912853630522149 0.0
0.0016957800681445658 0.0002198325271162961 0.0
0.003936512325354907 -0.0005251758995497015 0.0
0.0005193970870330967 -0.0005212619806155244 0.0
5.0100983367930574e-5 -2.5987970114078425e-5 0.0
0.004448366075982412 -2.3890431572468497e-5 0.0
0.004392745252713591 3.118832303129029e-6 0.0
9.898768019640366e-5 3.750956501173437e-6 0.0
0.004100832199171483 -0.0004005567648134776 0.0
0.00036396758354836537 -0.0003933218768765287 0.0
0.003010853232075909 0.0001641369632019317 0.0
0.0014926896115300499 0.0002309822179424334 0.0
3.7146820946737835e-5 -2.8444239540644394e-5 0.0
0.004459163378458451 -2.719201331001098e-5 0.0
0.0017186941863879272 -0.0010166523118945786 0.0
0.0020203842846219506 -0.0010604122044450186 0.0
0.00272521769558378 -0.0010333845676116272 0.0
0.0023322154033337196 -0.0010701135207378705 0.0
0.0030267432065678637 -0.000957122939240699 0.0
0.003358811370023117 -0.0008382789655757376 0.0
0.0013791642955181982 -0.0009334221538436882 0.0
0.0010486696379630727 -0.0008169048421746171 0.0
0.004216658352891493 -0.00030085570650091744 0.0
0.00025292770067176937 -0.0002913295327556002 0.0
0.004363274100692726 2.8134339390930265e-5 0.0
0.0001233411768271623 2.3645111914691193e-5 0.0
0.004465867249862196 -3.0273207546471294e-5 0.0
3.429699340062289e-5 -3.470123660543334e-5 0.0
0.003154633534057586 0.00016748297997590546 0.0
0.001386511730457762 0.00026867387474550653 0.0
0.004308738804250237 5.2471326435996005e-5 0.0
0.00017074858174968502 4.6656192873526844e-5 0.0
6.107915870409265e-5 -2.1627129438102775e-5 0.0
0.004436865914654319 -2.049909712730959e-5 0.0
0.002590496498576966 0.0001843503461427075 0.0
0.0018531770677231352 0.00021696182324105627 0.0
0.00013975569311793797 -0.0001683672685260815 0.0
0.004348872759688703 -0.00017027078995777731 0.0
0.0031219918276555875 -0.000929277471237745 0.0
0.0024284480593934235 -0.0010693218199664056 0.0
0.001621945563714289 -0.0009962172266382743 0.0
0.0012761893643154006 -0.0009030287946709194 0.0
0.002626658632703246 -0.0010479343036714163 0.0
0.003591519465113599 -0.0007300575309242387 0.0
0.0008343242770035247 -0.0007125465038205852 0.0
0.0038104308961883653 -0.0006068977966786684 0.0
0.000624414584883374 -0.0005903129911455342 0.0
0.00043714380346267603 -0.0004559947668493068 0.0
0.004019287191677915 -0.0004642946740168266 0.0
0.0008431174913716443 0.00032731501738354974 0.0
0.0037385844525004265 0.00027135653471308327 0.0
0.004466878603609956 -3.478668179902288e-5 0.0
2.9917496929147853e-5 -3.5185255491921066e-5 0.0
0.0013285645397119838 0.0003718323837006574 0.0
0.003267733542541789 0.000226481008988885 0.0
0.00019307442638237182 7.528413458245147e-5 0.0
0.004303929145970147 7.220745142842976e-5 0.0
6.0913641384485397e-5 -7.554723012038226e-5 0.0
0.004432392143013097 -7.835840448792228e-5 0.0
0.0034955131861955854 0.000306542275223919 0.0
0.0035795316712378114 0.00024101037085190027 0.0
0.003856444759012663 0.00019028892790179223 0.0
0.0036999874039898924 0.00019781691802513726 0.0
0.0034875102612538355 0.0002185828391858836 0.0
0.003565983335943789 0.00020457415314389108 0.0
0.003768968871951636 0.00017592991687757903 0.0
0.0036424586001203504 0.00018806142722945223 0.0
0.003833880123153095 0.0001553876250430001 0.0
0.0037168332940452366 0.00016631924351614158 0.0
0.003537303150512402 0.00019354400384847457 0.0
0.0036053942678731235 0.00017087835342287355 0.0
0.003450559540699737 0.00019223549312039442 0.0
0.003505481591303329 0.00016807706399895998 0.0
0.0033641244200136914 0.00018601664195376722 0.0
0.0034135969758765654 0.0001576746258348133 0.0
0.0023577197735379497 0.00012183891050188624 0.0
0.0022121572106941958 9.784223557183862e-5 0.0
0.0023264154031362575 8.666539896266271e-5 0.0
0.002208589138702765 6.934278990136975e-5 0.0
0.0023081225174747377 5.9704630753011565e-5 0.0
0.002206887754127434 4.642275066865603e-5 0.0
0.0022963322675650425 3.682978210155015e-5 0.0
0.0022049697844676464 2.531417727904339e-5 0.0
0.002287756710895742 1.6137021470703838e-5 0.0
0.002203283753676359 5.751059831363799e-6 0.0
0.0022812546446817567 -2.93810017024946e-6 0.0
0.0022019920221623105 -1.2559905504201985e-5 0.0
0.0022762475279630777 -2.1397707264250792e-5 0.0
0.0022029858138499564 -3.0332545491014928e-5 0.0
0.0022723419896903485 -3.9105418974851557e-5 0.0
0.002202061023352783 -4.7733337295355734e-5 0.0
0.002268801966988918 -5.635420087932415e-5 0.0
0.0021989447107050534 -6.477806417714572e-5 0.0
0.002265327852036912 -7.335219687688682e-5 0.0
0.0021975156768265177 -8.154552964744441e-5 0.0
0.0022624404079656306 -9.022907587502755e-5 0.0
0.0021963820977859046 -9.827091303978013e-5 0.0
0.002257744441205647 -0.00010696645464415395 0.0
0.002194882805063631 -0.0001150675841181759 0.0
0.002254985171555318 -0.0001238347839274841 0.0
0.0021945841206266912 -0.0001315717640597704 0.0
0.0022526343488858775 -0.00014080658896971972 0.0
0.002190266218213185 -0.00014753904417776038 0.0
0.002249672669087976 -0.0001578884382995661 0.0
0.0021743922956057706 -0.00016483687195277018 0.0
0.0022507815085781547 -0.00017554303060202608 0.0
0.0021873885873561053 -0.0001836475248825005 0.0
0.0022481476717907604 -0.00019327914618906994 0.0
0.0021882763000309943 -0.00020187877447393863 0.0
0.0022465314701524837 -0.00021155139516028517 0.0
0.0021908371192216093 -0.00022032057215427297 0.0
0.00224468493790395 -0.0002301461368102009 0.0
0.0021905370752376484 -0.00023944358318410514 0.0
0.002125404984805361 1.6775504459118542e-5 0.0
0.0022428184404020683 -0.0002492884308084811 0.0
0.002130827670593475 -7.192101100417086e-5 0.0
0.002118128677912624 -0.00017859785652490277 0.0
0.0021858227464058074 -0.0002587989813893208 0.0
0.0022405443395327996 -0.0002689598455771728 0.0
0.0021812182741930714 -0.0002794078716107417 0.0
0.0021273318962443805 -0.0002673379898350514 0.0
0.002121346739945863 -0.0002889815246636633 0.0
0.002236082704551529 -0.0002903909169514793 0.0
0.002296099300164538 -0.0002791792284870971 0.0
0.002305698951566977 -0.00018399066923294183 0.0
0.0022919556097470775 -0.0003012468281199101 0.0
0.002355543596491301 -0.00028790722095918005 0.0
0.002349306811536667 -0.00031202354759408296 0.0
0.0020679994692695564 -0.00027632624047272645 0.0
0.0020641866539607696 -0.00029759978519180785 0.0
0.002414763229185546 -0.00029748484888314004 0.0
0.0020074305932881835 -0.00028423433309242394 0.0
0.002007117972450318 -0.0003066077747357541 0.0
0.0024095747482058482 -0.0003219101915940581 0.0
0.0024728836092886863 -0.0003084843202269035 0.0
0.0019464587256254199 -0.0002923171737683567 0.0
0.00194473289318552 -0.0003154168225128916 0.0
0.0024690368591980707 -0.0003327911043799436 0.0
0.002534002472329992 -0.0003185454958812414 0.0
0.0018857427406865255 -0.0003004288870653605 0.0
0.00188347588128005 -0.0003249745361640483 0.0
0.002529988436174075 -0.0003441498146551997 0.0
0.0025965536466406106 -0.00032847637919208666 0.0
0.0018254579972282446 -0.0003073043266110258 0.0
0.0018191550378641494 -0.0003326744838290285 0.0
0.002593354230769974 -0.00035477927800074704 0.0
0.0026601422303632457 -0.0003382037913199041 0.0
0.0017591755600212201 -0.0003142347651525172 0.0
0.0017544401978177356 -0.00034114277265240864 0.0
0.0016910551913248196 -0.00032285438068579823 0.0
0.0016953875749571843 -0.00029435679276511133 0.0
0.002520555469563711 -0.00036944860198796965 0.0
0.0026566374793971967 -0.0003655819999994937 0.0
0.0027246192598070172 -0.0003477882972213426 0.0
0.0027292355048727903 -0.0003197295958480089 0.0
0.0023195473917997987 -9.938462886427162e-5 0.0
0.002796157726437665 -0.0003288172371315196 0.0
0.0028013477033923084 -0.0002997464475418755 0.0
0.0028702413236779793 -0.0003079258468072741 0.0
0.0016915884328472085 -0.0003520107405575858 0.0
0.0016253819661456678 -0.00033061952696555283 0.0
0.001753740506886988 -0.0003701196918202065 0.0
0.0027191747633174613 -0.00037664486050157124 0.0
0.0016266578998627352 -0.00036062834820185997 0.0
0.0015597197357624095 -0.00033759245888684747 0.0
0.002346589267282328 -2.887380573497567e-5 0.0
0.0015606794701846303 -0.00036706886485786606 0.0
0.0014939051271681237 -0.00034365739060482255 0.0
0.0014949998321753249 -0.0003739441245380856 0.0
0.0014291457744230352 -0.0003483253514021277 0.0
0.0014265867443472144 -0.00031880174241765276 0.0
0.0013580631229353562 -0.00032432606211133067 0.0
0.0013564576890322637 -0.000293140440064993 0.0
0.0014223557881476551 -0.00037841433772348995 0.0
0.001282985871070173 -0.0002990670236133197 0.0
0.0012807991584025099 -0.00026713784385172567 0.0
0.0014965315948594295 -0.0004060654243182578 0.0
0.00143469991632405 -0.0004130184422832041 0.0
0.0012091189233800587 -0.00027057337667802484 0.0
0.0012045111187695126 -0.00023953049205110023 0.0
0.0028774029609246166 -0.00027854190872705366 0.0
0.0029488854714156527 -0.00028635321138563023 0.0
0.001497801825231878 -0.0004386657386732954 0.0
0.0014366485387418656 -0.0004454725338772065 0.0
0.002956875659475896 -0.00025611077909525797 0.0
0.003031628086704431 -0.0002642073788560083 0.0
0.003020624815985601 -0.000297376274842177 0.0
0.0031037115364372227 -0.00027343877648867027 0.0
0.0030941549130581022 -0.00030745785868607783 0.0
0.003177153806029944 -0.0002809104485402342 0.0
0.0031718701054599427 -0.00031474724382542436 0.0
0.0032574273791574674 -0.000284750729826829 0.0
0.003245046725482812 -0.00031932269382260693 0.0
0.0032627251594300136 -0.0002523447343100392 0.0
0.00333182786372375 -0.0002899045121825289 0.0
0.0033150606182982124 -0.0003243575417586413 0.0
0.0014996646751261093 -0.00047192856591973673 0.0
0.0011291156647932658 -0.00024222472892674598 0.0
0.0011230975724017642 -0.0002107941335869446 0.0
0.0032355285631528764 -0.00035486372921094425 0.0
0.0033030292795084813 -0.00035942575281113084 0.0
0.0033812298752545905 -0.0003284710965846468 0.0
0.0032291969905968924 -0.0003913146341526985 0.0
0.0014398613156878313 -0.00047898092925442715 0.0
0.0033695747381189407 -0.0003631082021538726 0.0
0.0034459102400998818 -0.00033131844587618985 0.0
0.0015012682180192392 -0.0005061798444421274 0.0
0.0014425147292184918 -0.0005134939012809318 0.0