# vtk DataFile Version 2.0
phase field modeling fracture
ASCII
DATASET UNSTRUCTURED_GRID
POINTS 2538 float
0.0 0.0 0.0
10.0 0.0 0.0
0.0 10.0 0.0
10.0 10.0 0.0
0.0 4.9995 0.0
0.0 5.0005 0.0
5.0 5.0 0.0
0.9416964895726688 0.0 0.0
1.803581725054446 0.0 0.0
2.592419885431098 0.0 0.0
3.314401822861676 0.0 0.0
3.975193910351406 0.0 0.0
4.579982132660152 0.0 0.0
5.133512780936812 0.0 0.0
5.640130319506143 0.0 0.0
6.103810708661955 0.0 0.0
6.528192895506818 0.0 0.0
6.916607540127679 0.0 0.0
7.272102969376355 0.0 0.0
7.597469242948583 0.0 0.0
7.895259826292669 0.0 0.0
8.167811885738017 0.0 0.0
8.417264413845215 0.0 0.0
8.645575169389538 0.0 0.0
8.854535961159101 0.0 0.0
9.045786767735546 0.0 0.0
9.220828555767493 0.0 0.0
9.38103509633881 0.0 0.0
9.527663687265145 0.0 0.0
9.661865124984566 0.0 0.0
9.784692609918062 0.0 0.0
9.897110148790482 0.0 0.0
10.0 0.09999999999992584 0.0
10.0 0.199999999999856 0.0
10.0 0.2999999999997771 0.0
10.0 0.3999999999996677 0.0
10.0 0.4999999999995511 0.0
10.0 0.5999999999994683 0.0
10.0 0.6999999999993983 0.0
10.0 0.7999999999993286 0.0
10.0 0.8999999999992587 0.0
10.0 0.9999999999991888 0.0
10.0 1.099999999999119 0.0
10.0 1.199999999999033 0.0
10.0 1.299999999998852 0.0
10.0 1.399999999998576 0.0
10.0 1.499999999998284 0.0
10.0 1.599999999997992 0.0
10.0 1.6999999999977 0.0
10.0 1.799999999997408 0.0
10.0 1.899999999997116 0.0
10.0 1.999999999996825 0.0
10.0 2.099999999996533 0.0
10.0 2.199999999996241 0.0
10.0 2.299999999995949 0.0
10.0 2.399999999995657 0.0
10.0 2.499999999995365 0.0
10.0 2.599999999995073 0.0
10.0 2.699999999994782 0.0
10.0 2.79999999999449 0.0
10.0 2.899999999994198 0.0
10.0 2.999999999993906 0.0
10.0 3.099999999993614 0.0
10.0 3.199999999993322 0.0
10.0 3.299999999993029 0.0
10.0 3.399999999992738 0.0
10.0 3.499999999992446 0.0
10.0 3.599999999992154 0.0
10.0 3.699999999991863 0.0
10.0 3.799999999991571 0.0
10.0 3.899999999991278 0.0
10.0 3.999999999991022 0.0
10.0 4.099999999991035 0.0
10.0 4.199999999991187 0.0
10.0 4.299999999991338 0.0
10.0 4.399999999991491 0.0
10.0 4.499999999991642 0.0
10.0 4.599999999991795 0.0
10.0 4.699999999991947 0.0
10.0 4.799999999992099 0.0
10.0 4.89999999999225 0.0
10.0 4.999999999992403 0.0
10.0 5.099999999992555 0.0
10.0 5.199999999992706 0.0
10.0 5.299999999992858 0.0
10.0 5.39999999999301 0.0
10.0 5.499999999993161 0.0
10.0 5.599999999993313 0.0
10.0 5.699999999993466 0.0
10.0 5.799999999993618 0.0
10.0 5.899999999993771 0.0
10.0 5.999999999993922 0.0
10.0 6.099999999994074 0.0
10.0 6.199999999994227 0.0
10.0 6.299999999994378 0.0
10.0 6.39999999999453 0.0
10.0 6.499999999994682 0.0
10.0 6.599999999994833 0.0
10.0 6.699999999994986 0.0
10.0 6.799999999995138 0.0
10.0 6.899999999995289 0.0
10.0 6.999999999995442 0.0
10.0 7.099999999995594 0.0
10.0 7.199999999995747 0.0
10.0 7.299999999995897 0.0
10.0 7.39999999999605 0.0
10.0 7.499999999996202 0.0
10.0 7.599999999996353 0.0
10.0 7.699999999996505 0.0
10.0 7.799999999996658 0.0
10.0 7.899999999996808 0.0
10.0 7.999999999996962 0.0
10.0 8.099999999997113 0.0
10.0 8.199999999997265 0.0
10.0 8.299999999997418 0.0
10.0 8.399999999997569 0.0
10.0 8.499999999997721 0.0
10.0 8.599999999997873 0.0
10.0 8.699999999998024 0.0
10.0 8.799999999998176 0.0
10.0 8.899999999998329 0.0
10.0 8.99999999999848 0.0
10.0 9.099999999998634 0.0
10.0 9.199999999998786 0.0
10.0 9.299999999998937 0.0
10.0 9.399999999999089 0.0
10.0 9.499999999999241 0.0
10.0 9.599999999999392 0.0
10.0 9.699999999999545 0.0
10.0 9.799999999999697 0.0
10.0 9.899999999999848 0.0
9.897110148790565 10.0 0.0
9.784692609918244 10.0 0.0
9.66186512498486 10.0 0.0
9.527663687265571 10.0 0.0
9.381035096339392 10.0 0.0
9.220828555768257 10.0 0.0
9.045786767736512 10.0 0.0
8.854535961160305 10.0 0.0
8.645575169391027 10.0 0.0
8.417264413847017 10.0 0.0
8.167811885740178 10.0 0.0
7.895259826295246 10.0 0.0
7.597469242951631 10.0 0.0
7.272102969379938 10.0 0.0
6.916607540131873 10.0 0.0
6.528192895511704 10.0 0.0
6.103810708667616 10.0 0.0
5.640130319512691 10.0 0.0
5.13351278094435 10.0 0.0
4.579982132668816 10.0 0.0
3.975193910361222 10.0 0.0
3.314401822869852 10.0 0.0
2.592419885437257 10.0 0.0
1.803581725058137 10.0 0.0
0.9416964895740705 10.0 0.0
0.0 9.00010000000243 0.0
0.0 8.000200000005481 0.0
0.0 7.000300000005135 0.0
0.0 6.000400000002569 0.0
0.901790731451151 5.000409820926855 0.0
1.657200899774397 5.000334279910023 0.0
2.289991063707192 5.000271000893629 0.0
2.820065163538221 5.000217993483646 0.0
3.264096435579811 5.000173590356442 0.0
3.636051481595835 5.00013639485184 0.0
3.947629914072366 5.000105237008593 0.0
4.208632181002628 5.0000791367819 0.0
4.427267949625672 5.000057273205037 0.0
4.610414277633563 5.000038958572237 0.0
4.763831845154243 5.000023616815485 0.0
4.892346298799659 5.00001076537012 0.0
4.892346298799748 4.99998923462988 0.0
4.763831845154455 4.999976383184515 0.0
4.610414277633943 4.999961041427763 0.0
4.427267949626277 4.999942726794963 0.0
4.208632181003523 4.9999208632181 0.0
3.94762991407365 4.999894762991407 0.0
3.636051481597624 4.99986360514816 0.0
3.264096435582253 4.999826409643559 0.0
2.820065163541503 4.999782006516354 0.0
2.289991063711534 4.999728999106371 0.0
1.657200899778495 4.999665720089978 0.0
0.9017907314530094 4.999590179073145 0.0
0.0 3.999600000002013 0.0
0.0 2.999700000005187 0.0
0.0 1.99980000000512 0.0
0.0 0.9999000000025537 0.0
9.897889398521345 2.93573355845387 0.0
9.906568249974548 7.060009441434234 0.0
9.913122631074113 3.64016132281653 0.0
9.922462129543863 6.354535290629151 0.0
9.917693659967533 4.354211663134567 0.0
9.909873057440208 5.637584487339942 0.0
9.914183254994697 4.950672966925282 0.0
9.913885043715895 7.666887930262611 0.0
9.91009668007573 2.351889069770817 0.0
9.905135696074536 8.138152454502785 0.0
9.913397459621809 1.849999999997262 0.0
7.099302372137626 0.297750452375005 0.0
7.095143729410097 9.700359990366296 0.0
4.942912558701401 5.095838627899509 0.0
4.315009232304429 5.165022115481685 0.0
4.946182472483878 4.906763777264103 0.0
4.317967462990024 4.825955043772673 0.0
9.916390871492647 8.64999999999792 0.0
9.921504649680616 1.368376469890358 0.0
8.292538149791614 0.206877570318844 0.0
8.292538149793597 9.793122429681448 0.0
5.884594439766573 9.587645267048616 0.0
5.794826292691579 0.3794853783929359 0.0
9.913397459621425 9.049999999998557 0.0
9.908526577714177 0.9568239351922434 0.0
3.456851160380649 5.315740054130451 0.0
3.457889657868442 4.707121019609468 0.0
8.945214200703926 0.1503383337970344 0.0
8.950161364448409 9.8413906539257 0.0
9.913862335499305 4.055887885208452 0.0
9.916697353372683 4.650158482607802 0.0
9.919076340414442 6.049999999994006 0.0
9.906994308667635 5.25749687748192 0.0
9.917490342358025 6.655979201891897 0.0
9.915757520293784 7.343848891656911 0.0
9.910049507471042 3.363474386285078 0.0
9.914471988502868 2.647400064832979 0.0
9.91474124160965 9.337490423485129 0.0
9.916971008170838 0.6499999999994355 0.0
4.307157269264427 9.509674045029644 0.0
4.331527375865619 0.4401616696422582 0.0
9.45434939180249 9.878397030523757 0.0
9.457696120412969 0.1270877537061785 0.0
2.555070293622606 5.422044496190925 0.0
2.566232917480916 4.608001224030952 0.0
3.026511860837692 9.332320638257093 0.0
2.945561971800619 0.5895662714727601 0.0
7.7395404387124 0.2511088946967771 0.0
7.736379255744154 9.745848826372828 0.0
4.687135269408529 5.122111433928926 0.0
4.688420821504113 4.871895064967488 0.0
9.910554884115975 0.3448356354522978 0.0
9.911230082250466 9.65764729394159 0.0
9.921953841410854 6.851023993342036 0.0
9.912065178606017 5.448170483544033 0.0
9.911660025326261 3.861846960030188 0.0
9.914847467973438 3.14501593945607 0.0
9.913397459621425 5.849999999993703 0.0
9.913397459621425 7.849999999996735 0.0
9.906916878988277 2.15455769998631 0.0
9.913397459621425 8.349999999997479 0.0
9.909472363117661 1.640528221515488 0.0
9.913987325695956 1.152857110636247 0.0
9.913397459621425 8.849999999998241 0.0
0.9100099990995943 2.614215977520411 0.0
0.8395284981715456 7.451196254860987 0.0
9.723278867451556 9.898135916635193 0.0
9.723316350887044 0.09841820909386662 0.0
1.385819164827588 4.454539963646463 0.0
1.338343629665047 5.523111536005823 0.0
1.377179700550677 0.6809168304959698 0.0
1.418060461092743 9.285896715136046 0.0
9.91268220142518 0.1457914080939694 0.0
9.906737126737994 9.845745933882352 0.0
0.7108351382691361 6.537941170074089 0.0
1.527735020267026 6.915620208855231 0.0
1.630993885659103 7.838271825205868 0.0
2.232760943566823 7.370850737296832 0.0
2.243414218068206 6.688299277952821 0.0
2.779655053105118 7.021588754814074 0.0
2.80227799359795 7.632420170547022 0.0
3.282022065908813 7.305859666021318 0.0
3.327597298795347 7.857554136825748 0.0
3.743210251018715 7.549183328204379 0.0
3.716353232200752 7.062036086888612 0.0
4.111978858674101 7.27497101169417 0.0
4.104192177581432 6.879858986267289 0.0
4.436230765617037 7.045693351607117 0.0
4.430360014817357 6.703971783962796 0.0
4.732390145036301 6.849841042423394 0.0
5.056161327708878 5.095276573498806 0.0
5.111586796021131 4.999081142133581 0.0
5.169267363407189 5.09444870412406 0.0
5.223795108752053 4.996986220359468 0.0
5.281480803887719 5.092780870372803 0.0
5.335670761900611 4.994887492556936 0.0
5.393485214772442 5.090486192743301 0.0
5.447323082877892 4.992601527033996 0.0
5.505243219343024 5.087953380710069 0.0
5.558739102026105 4.990287787962959 0.0
5.616491581184779 5.085335255235766 0.0
5.669852346908056 4.9879269227514 0.0
5.727502713908907 5.082679981817038 0.0
5.780766004135139 4.988313988715834 0.0
5.838244881129535 5.080480568766611 0.0
5.891357695677371 4.986433849408193 0.0
5.948696036767613 5.077969900389505 0.0
6.001601341641615 4.981313698556656 0.0
6.058851024265095 5.074871552128682 0.0
6.111614020704875 4.978360695880202 0.0
6.168801161530775 5.072044953270978 0.0
6.221368818778567 4.975825765213497 0.0
6.278268309066882 5.066182320461055 0.0
6.330814273567539 4.972837984645718 0.0
6.387565032421376 5.062889771971895 0.0
6.437476667631405 4.971693683589553 0.0
[...]
POINT_DATA 2538
VECTORS disp float
1.580077699480631e-11 3.765050917900413e-11 0.0
3.054287510419792e-11 -8.232944394252557e-11 0.0
0.00349999999033344 2.449389847302442e-11 0.0
0.003499999966695277 -9.104715172467594e-11 0.0
0.0011848199932068641 0.00048236163705493723 0.0
0.0025333378491599126 0.00022330999295202538 0.0
0.0017246634014636173 9.066760228588728e-5 0.0
3.4400599482897727e-12 1.4087604105369491e-12 0.0
6.929573707502481e-12 7.611387690213587e-12 0.0
6.025008858883605e-12 4.125807562460174e-12 0.0
5.672278425037449e-12 3.7848714450376416e-12 0.0
5.038367851050319e-12 2.6363845663023618e-12 0.0
4.5803658674953714e-12 1.6961199714385155e-12 0.0
4.146871149615984e-12 8.15489433932739e-13 0.0
3.819363675832448e-12 -1.4185546469577622e-13 0.0
3.2495103701000742e-12 -1.1948430805441112e-12 0.0
3.4867030819186213e-12 -2.192385672249311e-12 0.0
3.373690975988207e-12 -3.3839889944227184e-12 0.0
3.462059759837018e-12 -4.675042055969648e-12 0.0
3.663089000361142e-12 -5.976545882384467e-12 0.0
3.696628958343284e-12 -7.1620048473466655e-12 0.0
4.022949194345089e-12 -8.595951700636799e-12 0.0
4.079506708436062e-12 -9.737364130800537e-12 0.0
4.369116036805591e-12 -1.1133420405586602e-11 0.0
4.544954588794276e-12 -1.2664023194642912e-11 0.0
4.779755227579925e-12 -1.411786433936863e-11 0.0
5.085013860527258e-12 -1.588756075990978e-11 0.0
5.480378594915035e-12 -1.789117880995912e-11 0.0
6.1309767872245524e-12 -2.040609830311271e-11 0.0
6.251613021152751e-12 -2.309278079432103e-11 0.0
8.715973355930667e-12 -2.97079298069369e-11 0.0
4.062960015667676e-12 -2.6643290366045225e-11 0.0
4.472037671079463e-5 -5.5914486572867644e-5 0.0
7.774246005042e-5 -9.576710549146895e-5 0.0
0.00010969095481987613 -0.00013034347488909798 0.0
0.0001401511690420542 -0.00016164610474779002 0.0
0.00016955005289423373 -0.00019069472548429684 0.0
0.00019847683998979232 -0.00021828676396778694 0.0
0.00022741359486876898 -0.00024451096904967376 0.0
0.00025608928257693926 -0.0002696017709322363 0.0
0.00028476415234112367 -0.0002938017717807738 0.0
0.0003135189677679028 -0.00031710163194322385 0.0
0.00034236536034858156 -0.00033971533499776475 0.0
0.0003715385645626519 -0.00036163544607211443 0.0
0.00040082009618098063 -0.0003828644986001847 0.0
0.00043035103966568923 -0.00040357327755137853 0.0
0.00046031630686134504 -0.000423700057568716 0.0
0.0004903938113095237 -0.00044323295848114347 0.0
0.0005208005717377265 -0.00046229399671335574 0.0
0.000551533125699006 -0.0004807761926971251 0.0
0.0005825624751831912 -0.0004987930810167324 0.0
0.000613906992105715 -0.000516335717254485 0.0
0.0006456061726896678 -0.0005334036848008183 0.0
0.0006775870061771093 -0.0005499883747074917 0.0
0.0007100481528007309 -0.0005661590364480986 0.0
0.0007426662328996058 -0.0005818303101069812 0.0
0.0007758148103411578 -0.0005970745840286266 0.0
0.0008090926390606567 -0.0006118167974465478 0.0
0.0008427757758613794 -0.0006261433881008463 0.0
0.0008767143534695689 -0.0006399585696498205 0.0
0.0009111171723710106 -0.0006533714733831432 0.0
0.0009456256025974062 -0.0006663132156274482 0.0
0.0009806033158516994 -0.0006788349616030069 0.0
0.0010158198158123676 -0.0006908483174284378 0.0
0.0010513717975831882 -0.0007024348847455694 0.0
0.0010871219966216445 -0.0007135343820504402 0.0
0.0011232946687649973 -0.0007242020490815816 0.0
0.0011595527947063347 -0.0007343469532441738 0.0
0.00119614183452938 -0.0007440306862660272 0.0
0.001232897231301011 -0.0007531508917709224 0.0
0.0012698995732252697 -0.0007617311553075952 0.0
0.001307099408482748 -0.0007698811777167435 0.0
0.001344452476932526 -0.0007774284795530388 0.0
0.00138208135441529 -0.000784535795078463 0.0
0.0014199065566832987 -0.000791076273210109 0.0
0.0014578431214006937 -0.0007971736944413062 0.0
0.001495987318152658 -0.0008026518476183314 0.0
0.0015341112821562932 -0.0008076632287014057 0.0
0.001572446589624036 -0.0008121691692237865 0.0
0.0016108000901428074 -0.0008161028436437843 0.0
0.0016492248021895688 -0.000819590025421036 0.0
0.0016878054344875478 -0.0008225010519608096 0.0
0.0017260819704118763 -0.0008247624524808404 0.0
0.001764729187518204 -0.0008265949152481773 0.0
0.0018027081410523142 -0.0008277666490247642 0.0
0.0018411425773563299 -0.0008284294931379262 0.0
0.0018782147320138447 -0.0008283970341057767 0.0
0.001916095890815206 -0.0008278231002262165 0.0
0.001952577389481363 -0.0008265460198297159 0.0
0.0019889022041175122 -0.0008242493699978913 0.0
0.0020250494161614375 -0.0008215020101619245 0.0
0.002061084594276931 -0.0008175496074660333 0.0
0.0020966958970954895 -0.0008131470223983545 0.0
0.0021322238653830737 -0.000807647635154728 0.0
0.002168133314364248 -0.000801484417414055 0.0
0.002203574862782644 -0.0007938170947619631 0.0
0.002239640021077734 -0.0007852576614061819 0.0
0.0022760349819510475 -0.0007757589808694024 0.0
0.0023119720005226846 -0.0007652468911713965 0.0
0.0023482097125846267 -0.0007540624355795142 0.0
0.0023847634247264127 -0.0007420602617111484 0.0
0.002421435226468677 -0.0007293459627375438 0.0
0.002457877776306254 -0.000716031428143097 0.0
0.0024946063193988567 -0.0007019480090600657 0.0
0.002531006748781288 -0.0006872795036899891 0.0
0.002567329582809308 -0.000672196966340744 0.0
0.0026037562518708723 -0.0006564159053114957 0.0
0.002639813515403331 -0.0006401886238219586 0.0
0.0026758163259821936 -0.0006234170154339253 0.0
0.0027115909376227145 -0.0006061340970971025 0.0
0.0027473377951918437 -0.0005883231788211431 0.0
0.00278290074201988 -0.0005699256019597682 0.0
0.0028182696335286445 -0.0005509771230123345 0.0
0.0028532629097948875 -0.0005315197147580144 0.0
0.0028881451206009532 -0.0005115311245005729 0.0
0.0029229146073412424 -0.0004909184725727317 0.0
0.0029573909778118305 -0.00046972861792245256 0.0
0.0029917635163347043 -0.00044799298600115423 0.0
0.0030261592416040103 -0.00042551608665264824 0.0
0.0030603080560678846 -0.00040233277083813755 0.0
0.003094278460765659 -0.0003784942389885723 0.0
0.003128383772784865 -0.00035383682147736265 0.0
0.0031626143677924274 -0.00032821704147901435 0.0
0.0031967697828711914 -0.00030158778731302594 0.0
0.003230941586888684 -0.000273919219656576 0.0
0.0032654077467929557 -0.00024493755872303315 0.0
0.0033005992242904508 -0.00021428773216333394 0.0
0.0033360631281954016 -0.00018174838755517775 0.0
0.0033722004895660415 -0.0001465566385626199 0.0
0.0034105821344329 -0.00010739663449674137 0.0
0.003450026147102895 -6.228906964764636e-5 0.0
0.0034999999952976947 -2.5825131907296923e-11 0.0
0.0034999999901393275 -2.865828110410168e-11 0.0
0.00349999999334195 -1.870347481765725e-11 0.0
0.0034999999933709018 -1.636612815676529e-11 0.0
0.0034999999938897827 -1.3590252415950784e-11 0.0
0.0034999999941796403 -1.1613940403519512e-11 0.0
0.0034999999943006394 -1.0146307848050296e-11 0.0
0.003499999994521599 -8.838007713399322e-12 0.0
0.003499999994602417 -7.646500373497072e-12 0.0
0.003499999994774123 -6.508919415079646e-12 0.0
0.0034999999949980563 -5.595030264233919e-12 0.0
0.003499999995086841 -4.4215552967240325e-12 0.0
0.0034999999952234537 -3.542967252412186e-12 0.0
0.003499999995358225 -2.5036507427072984e-12 0.0
0.003499999995432369 -1.5043285312509e-12 0.0
0.003499999995455786 -4.1519080601490454e-13 0.0
0.0034999999955104976 6.81192306341507e-13 0.0
0.003499999995101994 1.9538826968107475e-12 0.0
0.0034999999954449497 2.9954791378884493e-12 0.0
0.0034999999947388197 4.353215764352314e-12 0.0
0.0034999999947550563 5.2602026186568095e-12 0.0
0.003499999994514424 6.244868818154256e-12 0.0
0.0034999999947102085 6.501257769774165e-12 0.0
0.0034999999947285393 8.599118512408313e-12 0.0
0.0034999999972700384 3.761079594327176e-12 0.0
0.0032370567030892052 0.00016027451714836595 0.0
0.0030136437785274186 0.00023248480666837083 0.0
0.0028152505860784723 0.0002508327422120115 0.0
0.002646553538946413 0.00024035928755961972 0.0
0.002529384927524304 0.00011939992310988253 0.0
0.0025138334122164854 6.466521851971956e-5 0.0
0.0024719411594921747 4.0926849048201585e-5 0.0
0.00242031750771338 3.945088720105351e-5 0.0
0.002360495676907774 4.877798751092947e-5 0.0
0.002297548816558615 5.9395767496386916e-5 0.0
0.0022324187711945166 6.933687672080849e-5 0.0
0.002166001786236849 7.965368709032937e-5 0.0
0.0020969202560466756 8.795817419610913e-5 0.0
0.0020245428800549758 9.373504705491976e-5 0.0
0.001945185149839574 9.6766953618866e-5 0.0
0.0018512397061148152 9.794249482763235e-5 0.0
0.0016109108329942765 0.0001291567510892358 0.0
0.0015306517698620264 0.0001431044586724716 0.0
0.0014645428496336934 0.000150293760549172 0.0
0.0014070718105112655 0.00015573736776753323 0.0
0.001355117849644442 0.00016085848231230492 0.0
0.0013082697679327288 0.00016656409619389471 0.0
0.0012662758496357048 0.0001741044224398926 0.0
0.0012306395978137117 0.0001848566227610543 0.0
0.0012029908183544553 0.00020330749553821933 0.0
0.0011841713486302591 0.0002324097771763443 0.0
0.001180583480582476 0.0002848961535158259 0.0
0.0011806815927340884 0.00036141771212751586 0.0
0.0010539969219989457 0.0004957244593993608 0.0
0.0008659283147350104 0.0004725962313406312 0.0
0.0006073407190588138 0.0003870126497350527 0.0
0.0003230436564353527 0.0002515179253770779 0.0
0.0009174123801277404 -0.0006260114834431133 0.0
0.0024507815348289476 -0.0006803268000062605 0.0
0.0011699932461265805 -0.0007095641685240756 0.0
0.002191495072281852 -0.0007628120062373246 0.0
0.0014376259977990392 -0.0007664288707754035 0.0
0.0019309734680249219 -0.000793845024443917 0.0
0.0016673086145582304 -0.0007912479363048725 0.0
0.002671767730283282 -0.0005933021626095732 0.0
0.0007209980424247045 -0.0005474376302753956 0.0
0.0028409295560322006 -0.0005061959772063527 0.0
0.0005607980113557131 -0.000465149228142191 0.0
5.752388554795496e-5 -1.032775879648113e-5 0.0
0.003439287431427694 -8.74067439343645e-6 0.0
0.001866587021879486 0.00011631075249063629 0.0
0.0021365740326588075 0.00010338104231516022 0.0
0.0015828792208924176 0.00013158703455046884 0.0
0.001361705418086977 0.00017180856923116168 0.0
0.003017749316276087 -0.00040531724485371384 0.0
0.00041482143959570815 -0.0003756529563557394 0.0
4.102569606099802e-5 -1.8383175382547356e-5 0.0
0.0034566968207217236 -1.4705865248144795e-5 0.0
0.0034142872387257976 2.748466006512973e-6 0.0
7.660724589681877e-5 2.67393743703482e-6 0.0
0.003155183360768359 -0.00030956504972126994 0.0
0.0002933727128446199 -0.000283077708567263 0.0
0.0023267047471405393 8.121446182479513e-5 0.0
0.0012183939529393304 0.00019134845365484263 0.0
3.1231392558783805e-5 -1.96338700971434e-5 0.0
0.00346547475507454 -1.67709166453193e-5 0.0
0.0013245639488080718 -0.0007451645130411953 0.0
0.0015511322761133965 -0.0007813879218643467 0.0
0.002081554001351175 -0.000781200929532666 0.0
0.0017860830345074986 -0.0007944512377799938 0.0
0.0023016814080024767 -0.0007329193370282958 0.0
0.0025541136982238388 -0.0006446707147284205 0.0
0.0010692893054941835 -0.0006803320670532855 0.0
0.0008196638996394708 -0.0005923967772380407 0.0
0.0032539588494526544 -0.00023282794919519392 0.0
0.0002053681392259966 -0.00020980527230703966 0.0
0.003390612786528264 2.09532214740887e-5 0.0
9.765450541584548e-5 1.593565560588845e-5 0.0
0.0034713008277496 -1.951555045733791e-5 0.0
2.9263947024303064e-5 -2.3838524095875173e-5 0.0
0.00244714633576243 6.598786890189243e-5 0.0
0.0011445054464280903 0.00022373687632806875 0.0
0.003345674413869194 3.882164689631114e-5 0.0
0.0001392755577444954 3.209104327199134e-5 0.0
4.897174482849634e-5 -1.55923986843115e-5 0.0
0.003447787864572218 -1.2776142099089613e-5 0.0
0.002001693849399311 0.00011470466364063273 0.0
0.0014704329890183542 0.00016102746507613155 0.0
0.00011422673498023421 -0.00012121180823683788 0.0
0.0033687318408476942 -0.00013141465521489856 0.0
0.00237264396325079 -0.0007131285651696452 0.0
0.001859292544036188 -0.0007968664351100823 0.0
0.001251943625953092 -0.0007290195782295532 0.0
0.0009916918304207056 -0.0006570723035670541 0.0
0.00200906786711854 -0.0007884552830225174 0.0
0.0027375714856129048 -0.0005619925035338618 0.0
0.0006566739104209459 -0.0005151948158341913 0.0
0.0029142649017355605 -0.00046775699185498074 0.0
0.0004958844753086793 -0.0004257397923271411 0.0
0.0003507554589110375 -0.00032836917728733343 0.0
0.0030866290979830583 -0.00035851429610452967 0.0
0.0007187621655700415 0.0002546746795065914 0.0
0.0028970788229605612 0.00016180067189177277 0.0
0.0034718243460702147 -2.422298322803463e-5 0.0
2.5479154671206362e-5 -2.4474469748063493e-5 0.0
0.0011126019747575721 0.0003086287820668346 0.0
0.002550027132294085 9.968624302244353e-5 0.0
0.00016209366792911776 5.096453461603346e-5 0.0
0.0033410455177564275 4.763448852555237e-5 0.0
5.004157188093123e-5 -5.430795379055543e-5 0.0
0.0034418141373496313 -5.9675520944700565e-5 0.0
0.002718910730961875 0.00016702000637248092 0.0
0.002767349176820832 0.00014253162416366666 0.0
0.002985458232635286 0.00012143987755879096 0.0
0.002858271787857324 0.00012968656028572795 0.0
0.0026885629244674746 0.0001324272411891852 0.0
0.002748681780892525 0.0001369247611241526 0.0
0.002911961638532746 0.0001230847477337898 0.0
0.00280997545178462 0.0001332262112511256 0.0
0.0029642777823025664 0.00011280929021938204 0.0
0.0028708684191521 0.00012103631305388927 0.0
0.002726329039759144 0.00013833191939474938 0.0
0.002782776429252864 0.000124244111311792 0.0
0.002658750345310781 0.00013816200923230442 0.0
0.0027048374910491686 0.0001221274709544697 0.0
0.0025923931610427457 0.00013415932561934417 0.0
0.0026341490393624314 0.00011469012902145724 0.0
0.001823267079239678 7.621321622031498e-5 0.0
0.0017187616767692401 5.934580294613156e-5 0.0
0.0017989962588358334 5.106448819955176e-5 0.0
0.0017141798632073877 3.892022869864016e-5 0.0
0.0017845992596102523 3.188941330605108e-5 0.0
0.0017114770843202393 2.251559279077018e-5 0.0
0.0017752075737815399 1.5718372698031197e-5 0.0
0.0017089002577354994 7.483573863928771e-6 0.0
0.0017682919735886743 1.0512585702527829e-6 0.0
0.001706663771882691 -6.511007610222196e-6 0.0
0.0017629752657890177 -1.256848821732076e-5 0.0
0.0017048058085532365 -1.971983132145792e-5 0.0
0.0017587716870935298 -2.5887937559351567e-5 0.0
0.0017046974912144981 -3.262835913292442e-5 0.0
0.0017554016451881902 -3.876811512183178e-5 0.0
0.0017032642286504034 -4.5350537280378483e-5 0.0
0.0017523007735791897 -5.139486466601271e-5 0.0
0.0017002323474495959 -5.789934361634851e-5 0.0
0.0017492364519266306 -6.393709793901255e-5 0.0
0.0016984736618497218 -7.032053825872258e-5 0.0
0.0017465998004107042 -7.646692022636704e-5 0.0
0.0016969462767539043 -8.276801451303572e-5 0.0
0.0017425934611538906 -8.895423788632428e-5 0.0
0.0016951434455874806 -9.531303800996085e-5 0.0
0.0017399996145421042 -0.00010156364638722501 0.0
0.001694245619979399 -0.00010766005953981582 0.0
0.0017376970097349822 -0.00011428279015630192 0.0
0.001690348880443217 -0.00011964879181101959 0.0
0.0017349017077852129 -0.00012711082175753766 0.0
0.001677630737354734 -0.00013271408104570018 0.0
0.0017351526037525042 -0.00014037106510034824 0.0
0.0016867283133334312 -0.00014678423389187387 0.0
0.0017325615879522542 -0.00015371951117785108 0.0
0.001686694322799568 -0.00016046638320479218 0.0
0.001730716022564516 -0.00016745659809809957 0.0
0.0016879320100362642 -0.0001742955463384123 0.0
0.001728678564690202 -0.00018143216951553286 0.0
0.0016869852926316405 -0.0001886402414477897 0.0
0.0016508760236638093 1.4122208247114185e-6 0.0
0.0017266020724960801 -0.00019580287209420687 0.0
0.0016493213657495069 -6.348891473501137e-5 0.0
0.0016343797824665061 -0.00014334277002287014 0.0
0.0016826613302332557 -0.00020315062461435428 0.0
0.001724193601251792 -0.00021054278623175538 0.0
0.0016783853628830677 -0.0002185670891701353 0.0
0.0016375896870724264 -0.00020974578047699372 0.0
0.0016321786162702848 -0.00022589955765525436 0.0
0.001720054006350922 -0.0002265747267953433 0.0
0.0017664596124615523 -0.00021797657105329578 0.0
0.0017766471180335546 -0.00014645833566522793 0.0
0.0017625893659330815 -0.00023448042852498076 0.0
0.0018118585453675193 -0.00022427383407172717 0.0
0.001806356791121506 -0.00024232010096015435 0.0
0.001591834243239279 -0.0002166420730767831 0.0
0.0015880783416785877 -0.00023246145842947209 0.0
0.0018571627244886968 -0.00023120563123960432 0.0
0.001545162994510469 -0.00022268300854060835 0.0
0.0015440374274337551 -0.0002392532493285413 0.0
0.0018524909856801833 -0.0002494781309740716 0.0
0.0019016893002328332 -0.0002391960375991165 0.0
0.0014981661713891362 -0.00022879114728837832 0.0
0.0014959394046651724 -0.0002458318804482914 0.0
0.0018980739068379076 -0.0002573627705755332 0.0
0.0019486601368946534 -0.0002464500725938612 0.0
0.0014513665593094839 -0.00023483988130660582 0.0
0.001448697034268039 -0.0002528704112151114 0.0
0.0019448853882044622 -0.00026556936118135626 0.0
0.0019968419749088013 -0.0002535670782026648 0.0
0.0014049502108347011 -0.00023989854181243595 0.0
0.001399203740813516 -0.0002584503952742625 0.0
0.001993669632671491 -0.0002731809713908759 0.0
0.0020459228881820187 -0.0002604808025109952 0.0
0.001353957023199567 -0.000244901357777608 0.0
0.0013494318163605355 -0.0002644675283518151 0.0
0.0013015352282893964 -0.00025099853462460104 0.0
0.0013058785612438772 -0.00023029204554050046 0.0
0.0019368884146253773 -0.0002844260871005693 0.0
0.0020424642373757826 -0.00028087846834480877 0.0
0.00209577311957207 -0.00026724042352909387 0.0
0.0021000937737189786 -0.00024627892226856295 0.0
0.0017891577661579866 -8.301036854249446e-5 0.0
0.0021519757538199192 -0.0002526205191505324 0.0
0.002156743336400279 -0.00023084586482298046 0.0
0.002210320126317027 -0.0002364504716544714 0.0
0.001301067267801017 -0.00027209606174896135 0.0
0.001251063313269691 -0.00025633887143178296 0.0
0.0013480838281257589 -0.00028546581157816767 0.0
0.002090728799329613 -0.0002887236782145694 0.0
0.0012512447727546978 -0.0002779487244092506 0.0
0.0012006701351704387 -0.00026097334946964936 0.0
0.0018104986971501317 -3.100166133129244e-5 0.0
0.001200740043263977 -0.0002820909769482339 0.0
0.0011502411429381648 -0.00026481541050372634 0.0
0.0011505194948946945 -0.00028640660553526376 0.0
0.0011007110007044086 -0.0002675369469686104 0.0
0.0010993499823016904 -0.000246486291413734 0.0
0.0010468584912927243 -0.00024974717411559865 0.0
0.0010462979719391716 -0.0002275219121556002 0.0
0.0010950984652387675 -0.00028879507650563565 0.0
0.0009899300445975424 -0.00023097103348377403 0.0
0.0009889685029117203 -0.00020821210929696844 0.0
0.001151274837358176 -0.00030921893686933037 0.0
0.001104170520502959 -0.0003133977946752839 0.0
0.0009339287250153611 -0.0002098636385054318 0.0
0.000931098948171276 -0.0001876560950270755 0.0
0.0022166101802164723 -0.00021437656753933663 0.0
0.0022723712222979617 -0.0002196307080762738 0.0
0.0011519795350020169 -0.00033230046151364815 0.0
0.0011055064361914443 -0.00033629995429948245 0.0
0.0022793261919265913 -0.00019684504127071405 0.0
0.002337804415063432 -0.0002022184493101352 0.0
0.0023282865674629505 -0.000227205419805933 0.0
0.0023941788354055788 -0.00020837815909809833 0.0
0.0023856045507926415 -0.00023392170490126632 0.0
0.002451581722664883 -0.0002130802050972456 0.0
0.002446159080672324 -0.00023833923385587302 0.0
0.0025143658145057716 -0.00021481433675868945 0.0
0.0025031414004062914 -0.00024063391499311524 0.0
0.0025197758858320524 -0.00019059293451012841 0.0
0.0025723242793763 -0.00021742210578424426 0.0
0.002557416927238254 -0.000243115436730995 0.0
0.0011532764643140043 -0.00035580472098868914 0.0
0.0008731128961981558 -0.0001886954168023223 0.0
0.0008691813884674883 -0.00016610913482993287 0.0
0.0024939040957611693 -0.0002670305140282106 0.0
0.0025459083200104838 -0.000269035776220382 0.0
0.0026083863582163974 -0.00024469766403781057 0.0
0.0024868363952740913 -0.0002938549896755572 0.0
0.0011079330196529234 -0.0003599233361692178 0.0
0.002596816482490207 -0.0002701000227061496 0.0
0.0026579438791877754 -0.00024509235995571875 0.0
0.0011545088583271778 -0.00037996119359660175 0.0