# vtk DataFile Version 2.0
phase field modeling fracture
ASCII
DATASET UNSTRUCTURED_GRID
POINTS 2538 float
0.0 0.0 0.0
10.0 0.0 0.0
0.0 10.0 0.0
10.0 10.0 0.0
0.0 4.9995 0.0
0.0 5.0005 0.0
5.0 5.0 0.0
0.9416964895726688 0.0 0.0
1.803581725054446 0.0 0.0
2.592419885431098 0.0 0.0
3.314401822861676 0.0 0.0
3.975193910351406 0.0 0.0
4.579982132660152 0.0 0.0
5.133512780936812 0.0 0.0
5.640130319506143 0.0 0.0
6.103810708661955 0.0 0.0
6.528192895506818 0.0 0.0
6.916607540127679 0.0 0.0
7.272102969376355 0.0 0.0
7.597469242948583 0.0 0.0
7.895259826292669 0.0 0.0
8.167811885738017 0.0 0.0
8.417264413845215 0.0 0.0
8.645575169389538 0.0 0.0
8.854535961159101 0.0 0.0
9.045786767735546 0.0 0.0
9.220828555767493 0.0 0.0
9.38103509633881 0.0 0.0
9.527663687265145 0.0 0.0
9.661865124984566 0.0 0.0
9.784692609918062 0.0 0.0
9.897110148790482 0.0 0.0
10.0 0.09999999999992584 0.0
10.0 0.199999999999856 0.0
10.0 0.2999999999997771 0.0
10.0 0.3999999999996677 0.0
10.0 0.4999999999995511 0.0
10.0 0.5999999999994683 0.0
10.0 0.6999999999993983 0.0
10.0 0.7999999999993286 0.0
10.0 0.8999999999992587 0.0
10.0 0.9999999999991888 0.0
10.0 1.099999999999119 0.0
10.0 1.199999999999033 0.0
10.0 1.299999999998852 0.0
10.0 1.399999999998576 0.0
10.0 1.499999999998284 0.0
10.0 1.599999999997992 0.0
10.0 1.6999999999977 0.0
10.0 1.799999999997408 0.0
10.0 1.899999999997116 0.0
10.0 1.999999999996825 0.0
10.0 2.099999999996533 0.0
10.0 2.199999999996241 0.0
10.0 2.299999999995949 0.0
10.0 2.399999999995657 0.0
10.0 2.499999999995365 0.0
10.0 2.599999999995073 0.0
10.0 2.699999999994782 0.0
10.0 2.79999999999449 0.0
10.0 2.899999999994198 0.0
10.0 2.999999999993906 0.0
10.0 3.099999999993614 0.0
10.0 3.199999999993322 0.0
10.0 3.299999999993029 0.0
10.0 3.399999999992738 0.0
10.0 3.499999999992446 0.0
10.0 3.599999999992154 0.0
10.0 3.699999999991863 0.0
10.0 3.799999999991571 0.0
10.0 3.899999999991278 0.0
10.0 3.999999999991022 0.0
10.0 4.099999999991035 0.0
10.0 4.199999999991187 0.0
10.0 4.299999999991338 0.0
10.0 4.399999999991491 0.0
10.0 4.499999999991642 0.0
10.0 4.599999999991795 0.0
10.0 4.699999999991947 0.0
10.0 4.799999999992099 0.0
10.0 4.89999999999225 0.0
10.0 4.999999999992403 0.0
10.0 5.099999999992555 0.0
10.0 5.199999999992706 0.0
10.0 5.299999999992858 0.0
10.0 5.39999999999301 0.0
10.0 5.499999999993161 0.0
10.0 5.599999999993313 0.0
10.0 5.699999999993466 0.0
10.0 5.799999999993618 0.0
10.0 5.899999999993771 0.0
10.0 5.999999999993922 0.0
10.0 6.099999999994074 0.0
10.0 6.199999999994227 0.0
10.0 6.299999999994378 0.0
10.0 6.39999999999453 0.0
10.0 6.499999999994682 0.0
10.0 6.599999999994833 0.0
10.0 6.699999999994986 0.0
10.0 6.799999999995138 0.0
10.0 6.899999999995289 0.0
10.0 6.999999999995442 0.0
10.0 7.099999999995594 0.0
10.0 7.199999999995747 0.0
10.0 7.299999999995897 0.0
10.0 7.39999999999605 0.0
10.0 7.499999999996202 0.0
10.0 7.599999999996353 0.0
10.0 7.699999999996505 0.0
10.0 7.799999999996658 0.0
10.0 7.899999999996808 0.0
10.0 7.999999999996962 0.0
10.0 8.099999999997113 0.0
10.0 8.199999999997265 0.0
10.0 8.299999999997418 0.0
10.0 8.399999999997569 0.0
10.0 8.499999999997721 0.0
10.0 8.599999999997873 0.0
10.0 8.699999999998024 0.0
10.0 8.799999999998176 0.0
10.0 8.899999999998329 0.0
10.0 8.99999999999848 0.0
10.0 9.099999999998634 0.0
10.0 9.199999999998786 0.0
10.0 9.299999999998937 0.0
10.0 9.399999999999089 0.0
10.0 9.499999999999241 0.0
10.0 9.599999999999392 0.0
10.0 9.699999999999545 0.0
10.0 9.799999999999697 0.0
10.0 9.899999999999848 0.0
9.897110148790565 10.0 0.0
9.784692609918244 10.0 0.0
9.66186512498486 10.0 0.0
9.527663687265571 10.0 0.0
9.381035096339392 10.0 0.0
9.220828555768257 10.0 0.0
9.045786767736512 10.0 0.0
8.854535961160305 10.0 0.0
8.645575169391027 10.0 0.0
8.417264413847017 10.0 0.0
8.167811885740178 10.0 0.0
7.895259826295246 10.0 0.0
7.597469242951631 10.0 0.0
7.272102969379938 10.0 0.0
6.916607540131873 10.0 0.0
6.528192895511704 10.0 0.0
6.103810708667616 10.0 0.0
5.640130319512691 10.0 0.0
5.13351278094435 10.0 0.0
4.579982132668816 10.0 0.0
3.975193910361222 10.0 0.0
3.314401822869852 10.0 0.0
2.592419885437257 10.0 0.0
1.803581725058137 10.0 0.0
0.9416964895740705 10.0 0.0
0.0 9.00010000000243 0.0
0.0 8.000200000005481 0.0
0.0 7.000300000005135 0.0
0.0 6.000400000002569 0.0
0.901790731451151 5.000409820926855 0.0
1.657200899774397 5.000334279910023 0.0
2.289991063707192 5.000271000893629 0.0
2.820065163538221 5.000217993483646 0.0
3.264096435579811 5.000173590356442 0.0
3.636051481595835 5.00013639485184 0.0
3.947629914072366 5.000105237008593 0.0
4.208632181002628 5.0000791367819 0.0
4.427267949625672 5.000057273205037 0.0
4.610414277633563 5.000038958572237 0.0
4.763831845154243 5.000023616815485 0.0
4.892346298799659 5.00001076537012 0.0
4.892346298799748 4.99998923462988 0.0
4.763831845154455 4.999976383184515 0.0
4.610414277633943 4.999961041427763 0.0
4.427267949626277 4.999942726794963 0.0
4.208632181003523 4.9999208632181 0.0
3.94762991407365 4.999894762991407 0.0
3.636051481597624 4.99986360514816 0.0
3.264096435582253 4.999826409643559 0.0
2.820065163541503 4.999782006516354 0.0
2.289991063711534 4.999728999106371 0.0
1.657200899778495 4.999665720089978 0.0
0.9017907314530094 4.999590179073145 0.0
0.0 3.999600000002013 0.0
0.0 2.999700000005187 0.0
0.0 1.99980000000512 0.0
0.0 0.9999000000025537 0.0
9.897889398521345 2.93573355845387 0.0
9.906568249974548 7.060009441434234 0.0
9.913122631074113 3.64016132281653 0.0
9.922462129543863 6.354535290629151 0.0
9.917693659967533 4.354211663134567 0.0
9.909873057440208 5.637584487339942 0.0
9.914183254994697 4.950672966925282 0.0
9.913885043715895 7.666887930262611 0.0
9.91009668007573 2.351889069770817 0.0
9.905135696074536 8.138152454502785 0.0
9.913397459621809 1.849999999997262 0.0
7.099302372137626 0.297750452375005 0.0
7.095143729410097 9.700359990366296 0.0
4.942912558701401 5.095838627899509 0.0
4.315009232304429 5.165022115481685 0.0
4.946182472483878 4.906763777264103 0.0
4.317967462990024 4.825955043772673 0.0
9.916390871492647 8.64999999999792 0.0
9.921504649680616 1.368376469890358 0.0
8.292538149791614 0.206877570318844 0.0
8.292538149793597 9.793122429681448 0.0
5.884594439766573 9.587645267048616 0.0
5.794826292691579 0.3794853783929359 0.0
9.913397459621425 9.049999999998557 0.0
9.908526577714177 0.9568239351922434 0.0
3.456851160380649 5.315740054130451 0.0
3.457889657868442 4.707121019609468 0.0
8.945214200703926 0.1503383337970344 0.0
8.950161364448409 9.8413906539257 0.0
9.913862335499305 4.055887885208452 0.0
9.916697353372683 4.650158482607802 0.0
9.919076340414442 6.049999999994006 0.0
9.906994308667635 5.25749687748192 0.0
9.917490342358025 6.655979201891897 0.0
9.915757520293784 7.343848891656911 0.0
9.910049507471042 3.363474386285078 0.0
9.914471988502868 2.647400064832979 0.0
9.91474124160965 9.337490423485129 0.0
9.916971008170838 0.6499999999994355 0.0
4.307157269264427 9.509674045029644 0.0
4.331527375865619 0.4401616696422582 0.0
9.45434939180249 9.878397030523757 0.0
9.457696120412969 0.1270877537061785 0.0
2.555070293622606 5.422044496190925 0.0
2.566232917480916 4.608001224030952 0.0
3.026511860837692 9.332320638257093 0.0
2.945561971800619 0.5895662714727601 0.0
7.7395404387124 0.2511088946967771 0.0
7.736379255744154 9.745848826372828 0.0
4.687135269408529 5.122111433928926 0.0
4.688420821504113 4.871895064967488 0.0
9.910554884115975 0.3448356354522978 0.0
9.911230082250466 9.65764729394159 0.0
9.921953841410854 6.851023993342036 0.0
9.912065178606017 5.448170483544033 0.0
9.911660025326261 3.861846960030188 0.0
9.914847467973438 3.14501593945607 0.0
9.913397459621425 5.849999999993703 0.0
9.913397459621425 7.849999999996735 0.0
9.906916878988277 2.15455769998631 0.0
9.913397459621425 8.349999999997479 0.0
9.909472363117661 1.640528221515488 0.0
9.913987325695956 1.152857110636247 0.0
9.913397459621425 8.849999999998241 0.0
0.9100099990995943 2.614215977520411 0.0
0.8395284981715456 7.451196254860987 0.0
9.723278867451556 9.898135916635193 0.0
9.723316350887044 0.09841820909386662 0.0
1.385819164827588 4.454539963646463 0.0
1.338343629665047 5.523111536005823 0.0
1.377179700550677 0.6809168304959698 0.0
1.418060461092743 9.285896715136046 0.0
9.91268220142518 0.1457914080939694 0.0
9.906737126737994 9.845745933882352 0.0
0.7108351382691361 6.537941170074089 0.0
1.527735020267026 6.915620208855231 0.0
1.630993885659103 7.838271825205868 0.0
2.232760943566823 7.370850737296832 0.0
2.243414218068206 6.688299277952821 0.0
2.779655053105118 7.021588754814074 0.0
2.80227799359795 7.632420170547022 0.0
3.282022065908813 7.305859666021318 0.0
3.327597298795347 7.857554136825748 0.0
3.743210251018715 7.549183328204379 0.0
3.716353232200752 7.062036086888612 0.0
4.111978858674101 7.27497101169417 0.0
4.104192177581432 6.879858986267289 0.0
4.436230765617037 7.045693351607117 0.0
4.430360014817357 6.703971783962796 0.0
4.732390145036301 6.849841042423394 0.0
5.056161327708878 5.095276573498806 0.0
5.111586796021131 4.999081142133581 0.0
5.169267363407189 5.09444870412406 0.0
5.223795108752053 4.996986220359468 0.0
5.281480803887719 5.092780870372803 0.0
5.335670761900611 4.994887492556936 0.0
5.393485214772442 5.090486192743301 0.0
5.447323082877892 4.992601527033996 0.0
5.505243219343024 5.087953380710069 0.0
5.558739102026105 4.990287787962959 0.0
5.616491581184779 5.085335255235766 0.0
5.669852346908056 4.9879269227514 0.0
5.727502713908907 5.082679981817038 0.0
5.780766004135139 4.988313988715834 0.0
5.838244881129535 5.080480568766611 0.0
5.891357695677371 4.986433849408193 0.0
5.948696036767613 5.077969900389505 0.0
6.001601341641615 4.981313698556656 0.0
6.058851024265095 5.074871552128682 0.0
6.111614020704875 4.978360695880202 0.0
6.168801161530775 5.072044953270978 0.0
6.221368818778567 4.975825765213497 0.0
6.278268309066882 5.066182320461055 0.0
6.330814273567539 4.972837984645718 0.0
6.387565032421376 5.062889771971895 0.0
6.437476667631405 4.971693683589553 0.0
[...]
POINT_DATA 2538
VECTORS disp float
1.3446579438980394e-11 2.798851591628919e-11 0.0
1.9149212089158393e-11 -4.740181060386411e-11 0.0
0.002499999997433049 8.556293093022103e-12 0.0
0.002499999972974533 -6.992532115853206e-11 0.0
0.0009385428501392885 0.00037974462372228086 0.0
0.0018441213690910524 7.153597960712765e-5 0.0
0.0012701974643798616 3.2386662816929324e-5 0.0
8.998259694468111e-13 -2.1381313112662794e-12 0.0
4.016946159230761e-12 3.2059411493872157e-12 0.0
3.0470104462816957e-12 6.205251953232745e-13 0.0
2.6634947562545617e-12 6.579152426520593e-13 0.0
1.9869693678634908e-12 3.222450943962795e-13 0.0
1.7763574745782002e-12 -1.2904638369200915e-13 0.0
1.4733372747028442e-12 -3.77690677935369e-13 0.0
1.2752638514649897e-12 -8.405975655619911e-13 0.0
9.441489107848735e-13 -1.342155176514919e-12 0.0
1.1651744159684488e-12 -1.974326770509537e-12 0.0
1.1446480454417367e-12 -2.6635669443334557e-12 0.0
1.2857369964113123e-12 -3.395942069168218e-12 0.0
1.4640551051782703e-12 -4.122755785253766e-12 0.0
1.5289995186569563e-12 -4.660491246525544e-12 0.0
1.813376388002674e-12 -5.401753756567472e-12 0.0
1.8581342884712546e-12 -5.819127657671658e-12 0.0
2.019910634419693e-12 -6.474134370865706e-12 0.0
2.2152766827754747e-12 -7.0748235850771645e-12 0.0
2.2918552685510083e-12 -7.632562301804415e-12 0.0
2.4804949591861276e-12 -8.34138373344992e-12 0.0
2.7368331322168842e-12 -9.1299325582589e-12 0.0
3.0996622495596905e-12 -1.0171713217150145e-11 0.0
3.0912702371819003e-12 -1.1262562573487767e-11 0.0
4.693377390166716e-12 -1.467905182005966e-11 0.0
1.8847186018674924e-12 -1.1426676533105096e-11 0.0
3.467170149638851e-5 -3.325721343959e-5 0.0
6.0631397260364066e-5 -5.6281876659194184e-5 0.0
8.562306659057538e-5 -7.632840259202388e-5 0.0
0.0001091061220141271 -9.444467780409519e-5 0.0
0.0001314997261180213 -0.00011125795382760522 0.0
0.00015326513159443728 -0.0001273422261645016 0.0
0.00017479395524654096 -0.0001426372063331383 0.0
0.00019585802323541466 -0.0001573392547403299 0.0
0.0002166918633871375 -0.0001716119884298872 0.0
0.00023738995093236585 -0.00018540486700683188 0.0
0.00025793482241670486 -0.0001988834606262212 0.0
0.0002785492714578116 -0.00021200225668945082 0.0
0.0002990979703125975 -0.00022476413317882473 0.0
0.00031966553385399314 -0.00023730469176688718 0.0
0.0003403734262503284 -0.00024952623201962576 0.0
0.0003610398341439695 -0.00026142983346667364 0.0
0.0003818274577586975 -0.00027311711270120565 0.0
0.00040276501090475564 -0.00028448088312613726 0.0
0.0004238120468013109 -0.00029561302728071096 0.0
0.00044499775295164226 -0.00030651197515817804 0.0
0.00046633470647927585 -0.0003171726124918772 0.0
0.0004878100237141294 -0.00032759174447352044 0.0
0.0005095552791198952 -0.0003378008053536694 0.0
0.0005313432233326428 -0.0003477653692485506 0.0
0.0005534664184782364 -0.0003575076668741562 0.0
0.0005756142095275623 -0.0003669972432592954 0.0
0.0005980167577920138 -0.0003762800905771475 0.0
0.0006205781540246278 -0.0003852933373991134 0.0
0.0006434326106825068 -0.0003940991080762647 0.0
0.0006663200512086124 -0.00040268652712998704 0.0
0.0006895313620611647 -0.00041105418544919566 0.0
0.0007129125252859416 -0.00041916638544664753 0.0
0.0007365503079106562 -0.00042710434877764623 0.0
0.0007603642115852632 -0.00043483107497451916 0.0
0.0007844502277140166 -0.0004424114172521935 0.0
0.0008085672621010449 -0.00044973933998566115 0.0
0.0008330179658430671 -0.00045684449946382217 0.0
0.0008574973016795241 -0.00046357771277574794 0.0
0.0008820907155704811 -0.00046995227592721797 0.0
0.0009068819476329929 -0.0004761248852840872 0.0
0.0009317109553955761 -0.0004819002232705935 0.0
0.00095685014491501 -0.0004874214644863898 0.0
0.0009822239604891708 -0.0004925997198943823 0.0
0.001007779496226766 -0.0004975677053303387 0.0
0.0010336041934486165 -0.000502159448861414 0.0
0.0010594902977769658 -0.0005065023071607462 0.0
0.0010856637590702406 -0.0005105947453824278 0.0
0.0011119518573822552 -0.0005143751022702428 0.0
0.0011383883114391348 -0.0005179960097888074 0.0
0.0011650234560231225 -0.0005212790773707574 0.0
0.0011915787042941 -0.0005241820510355581 0.0
0.0012183744719887635 -0.0005268950130623364 0.0
0.001244904976453841 -0.0005292103803969455 0.0
0.001271859119558611 -0.0005312215535685375 0.0
0.001298440648174067 -0.0005328546928593574 0.0
0.0013255796283064027 -0.0005342283082202215 0.0
0.001352283160098408 -0.0005353810015173136 0.0
0.001378805325734302 -0.0005361341304156562 0.0
0.001405129760432141 -0.0005366834792655747 0.0
0.0014309774620625453 -0.0005366409297481574 0.0
0.0014562837336431662 -0.0005361994892915852 0.0
0.001481358000762526 -0.0005345493242994062 0.0
0.001506925436175937 -0.0005326872259009404 0.0
0.0015317977885646883 -0.0005302432566683009 0.0
0.0015567374213196756 -0.0005276715685623868 0.0
0.0015826274368170956 -0.0005248771624945891 0.0
0.0016072611486872218 -0.000521384313589589 0.0
0.0016313263021362303 -0.0005172003517650984 0.0
0.0016558933522910384 -0.0005119535505994376 0.0
0.0016809999962243297 -0.0005063750214765069 0.0
0.0017052293125867735 -0.0005002450179269442 0.0
0.0017310018499708541 -0.0004936948262585877 0.0
0.0017555630043397407 -0.00048689598393289576 0.0
0.0017800809613432059 -0.00047954616238862926 0.0
0.001805414400219689 -0.00047131928742409737 0.0
0.0018297956321297545 -0.00046242123695770863 0.0
0.0018546298834773327 -0.0004527208704965459 0.0
0.001879156884267893 -0.0004423888651117113 0.0
0.0019041096615831808 -0.0004314421339852749 0.0
0.0019291270443383567 -0.00041966477384413676 0.0
0.001954470465372362 -0.00040741295858278727 0.0
0.0019795765862544936 -0.00039450614216804636 0.0
0.002004755682246041 -0.0003809811941325604 0.0
0.0020301924698131685 -0.0003666691293676369 0.0
0.0020556289932388105 -0.000351754632502736 0.0
0.0020812811802234706 -0.00033637278350281133 0.0
0.0021074576193756463 -0.0003202709344506871 0.0
0.002133749671695977 -0.00030355896739351083 0.0
0.002160132203216756 -0.00028629495505151073 0.0
0.0021869586633908866 -0.0002683126277476516 0.0
0.0022142942707664695 -0.00024946882300715443 0.0
0.0022419276021442766 -0.00022979786735493094 0.0
0.0022698820083102453 -0.00020932087023041432 0.0
0.0022984166676530736 -0.0001877522544681349 0.0
0.002327942370473579 -0.0001647782601471691 0.0
0.002358078405070474 -0.00014022062349058735 0.0
0.002389154132934546 -0.00011351399269580647 0.0
0.0024224580143422793 -8.344046035911186e-5 0.0
0.002457062453936932 -4.858842848727699e-5 0.0
0.0024999999969666222 -1.3650113224846733e-11 0.0
0.00249999999337473 -1.5917011587998435e-11 0.0
0.0024999999965261283 -7.940928271517189e-12 0.0
0.0024999999962532567 -6.785810399568192e-12 0.0
0.00249999999670807 -5.014496031496337e-12 0.0
0.0024999999967757016 -3.8965181731135175e-12 0.0
0.0024999999968027494 -3.1294462359193956e-12 0.0
0.0024999999969272553 -2.5161090995332974e-12 0.0
0.0024999999969361397 -1.965238445685694e-12 0.0
0.0024999999970465904 -1.5162715085743975e-12 0.0
0.0024999999971394462 -1.1823918594360051e-12 0.0
0.0024999999972550252 -7.661259816392581e-13 0.0
0.0024999999973260097 -4.568671897318183e-13 0.0
0.002499999997426275 -5.4338436023946185e-14 0.0
0.0024999999974878295 3.498515599295034e-13 0.0
0.0024999999975267996 8.342027613766015e-13 0.0
0.0024999999975744997 1.3397263594507052e-12 0.0
0.0024999999974045306 1.967564110048145e-12 0.0
0.0024999999976469726 2.4624329188382e-12 0.0
0.0024999999973469703 3.1180034260213586e-12 0.0
0.002499999997445653 3.5477134226639054e-12 0.0
0.0024999999973912396 3.891972299671001e-12 0.0
0.002499999997530965 3.875087271946274e-12 0.0
0.0024999999979686232 4.420178741139128e-12 0.0
0.002499999998883305 2.370937061270427e-12 0.0
0.0023249880606848565 7.067244065891572e-5 0.0
0.002174321782405178 0.00010207359158481997 0.0
0.002040601866316442 0.00010028601662658548 0.0
0.001924236960076051 8.222696296531458e-5 0.0
0.0018409088808057682 -1.2487038321015393e-6 0.0
0.0018320660583020306 -4.1470483958602015e-5 0.0
0.001814158951848313 -7.517013696806e-5 0.0
0.0017822280014201772 -8.655266723051333e-5 0.0
0.0017384557654524626 -8.060691849577218e-5 0.0
0.0016908219515579352 -6.735730592675833e-5 0.0
0.0016412002662344507 -5.1194357609102187e-5 0.0
0.0015910191031348732 -3.28590092431186e-5 0.0
0.0015394737281662248 -1.5749545541593787e-5 0.0
0.0014864075502901467 -6.466353307979642e-7 0.0
0.0014288056882105662 1.2580628305011676e-5 0.0
0.0013611313452332476 2.3705702113526665e-5 0.0
0.0012024446661492746 7.340017143921723e-5 0.0
0.0011539083111516703 9.287028200524505e-5 0.0
0.00111339721888591 0.00010641360671624651 0.0
0.001077719188404442 0.00011812124952795134 0.0
0.001045040633727992 0.0001291601010069987 0.0
0.0010154068464827003 0.00014024304335408691 0.0
0.0009885283564182636 0.00015226152747298513 0.0
0.0009654406808086998 0.00016542133458477356 0.0
0.0009476407832120243 0.00018405751716417797 0.0
0.0009345989649688247 0.0002047725898535812 0.0
0.0009363011977364887 0.0002469708407342856 0.0
0.0009345422606987332 0.0002979040535278173 0.0
0.0008481402201284759 0.0003936912205354902 0.0
0.0007215987663420904 0.00039096416179672277 0.0
0.0005271183078036795 0.00032791799447019104 0.0
0.0002873326800265614 0.00021329318865801627 0.0
0.0006465317623695586 -0.0003794817813945681 0.0
0.0016996330684966817 -0.00047116162178555235 0.0
0.0008147001629383215 -0.00043633434051604594 0.0
0.001522521721506322 -0.0005112442996654417 0.0
0.000993556958716931 -0.000478935068291902 0.0
0.0013351045656320153 -0.0005140257252607441 0.0
0.0011502346546602182 -0.0005015633643112051 0.0
0.0018516589585434741 -0.00042530572435927255 0.0
0.0005158676977095807 -0.0003279886975734341 0.0
0.0019715177883204353 -0.0003692819071997889 0.0
0.00040810999148979904 -0.0002760235792693684 0.0
3.933896822307915e-5 -8.274030267622863e-6 0.0
0.002451622872153831 -2.704289327486816e-6 0.0
0.0013630092576426272 4.553958799005879e-5 0.0
0.0015564527539687289 -6.017929386939688e-6 0.0
0.0011737226062195915 6.864732342021507e-5 0.0
0.0010390632980308713 0.00013423768827182115 0.0
0.0021021164763146954 -0.00029994836325656667 0.0
0.00030806449613217927 -0.0002208064087934059 0.0
3.122935445298433e-5 -1.1471237865227834e-5 0.0
0.002464877086680516 -5.408450289180219e-6 0.0
0.0024329490885860528 3.633597423545123e-6 0.0
4.973134336326374e-5 -6.71701336674204e-8 0.0
0.002209415559057845 -0.00023026766891706628 0.0
0.00022217819446244301 -0.00016478777151133836 0.0
0.0016959384906620498 -4.840068277900323e-5 0.0
0.0009454774260346879 0.00016798749738549198 0.0
2.485325680431992e-5 -1.0988457679860845e-5 0.0
0.0024724073396508958 -6.591528994194626e-6 0.0
0.0009178054529368688 -0.00046263303244930366 0.0
0.0010705286148733712 -0.0004916076619841427 0.0
0.001444190663169514 -0.0005166407979313563 0.0
0.0012324352490946325 -0.0005078954909853066 0.0
0.0015990340697738317 -0.0004985322174881387 0.0
0.0017701422264021162 -0.00045403871180611316 0.0
0.000747574403590428 -0.00041584626546857485 0.0
0.0005817075265544241 -0.00035685200322655607 0.0
0.0022897847817393547 -0.00017356818721614778 0.0
0.00015798715475218763 -0.00012112790403988079 0.0
0.00241567445579512 1.3153261639884672e-5 0.0
6.849707031657837e-5 7.470239029697494e-6 0.0
0.002477708399422996 -9.240984258306041e-6 0.0
2.3769923100402875e-5 -1.2461761261466059e-5 0.0
0.0017920734182438542 -6.07158090785306e-5 0.0
0.000901574153575764 0.00019803761536133136 0.0
0.002382263783605784 2.0683942438083436e-5 0.0
0.00010562852941800152 1.5661560603175245e-5 0.0
3.56027952500229e-5 -1.0795915708929345e-5 0.0
0.0024578987245689496 -4.626912351264844e-6 0.0
0.001459357208806355 2.3227923766541735e-5 0.0
0.001106977439797694 0.00010965542297029608 0.0
8.909399304116232e-5 -6.871623492780763e-5 0.0
0.0023867919135669383 -9.718082583499906e-5 0.0
0.0016472527823196267 -0.0004894340184273918 0.0
0.0012839076553446914 -0.0005123628278149936 0.0
0.0008694022565444942 -0.00045063183529403566 0.0
0.0006960255595935211 -0.00039968894586534973 0.0
0.0013918936950554901 -0.0005159091245317907 0.0
0.001897473277456885 -0.0004062952237287836 0.0
0.00047273069256258403 -0.00030754935582900093 0.0
0.0020248949872738948 -0.00034376727390435805 0.0
0.0003638340265039153 -0.0002516466681329414 0.0
0.0002630837609351142 -0.00019210451180957198 0.0
0.0021552936815704385 -0.00026606124397472746 0.0
0.0006072540133300251 0.00020471493463718052 0.0
0.0020834144694967132 4.462131802802383e-5 0.0
0.0024773786131292554 -1.4171108511348678e-5 0.0
2.072374858896398e-5 -1.2580142984409096e-5 0.0
0.0008893331396137161 0.0002641718805898493 0.0
0.0018595210114525894 -1.719643083074886e-5 0.0
0.00013171612465380853 2.6233590510287127e-5 0.0
0.002385457028791132 1.948913487351677e-5 0.0
3.9419200813785776e-5 -2.983537645355536e-5 0.0
0.0024502484777504515 -4.266173459752952e-5 0.0
0.0019678234730358666 3.1769487725005965e-5 0.0
0.001984363450344766 2.201212598750061e-5 0.0
0.0021324140735752522 3.2781525405549834e-5 0.0
0.00203513165522989 3.1341045344826984e-5 0.0
0.001918737428979405 1.2200166962226168e-5 0.0
0.0019500799726856616 3.409056900267856e-5 0.0
0.002064426301441736 4.388210169215883e-5 0.0
0.0019858656259049536 5.093487773875013e-5 0.0
0.0020969249490346855 5.145659874218937e-5 0.0
0.00202573111471495 5.8216419558950394e-5 0.0
0.001921909779682655 5.828147559777091e-5 0.0
0.0019600835578664167 6.265169964328689e-5 0.0
0.0018710627785232714 6.420535196614405e-5 0.0
0.0019036130652353826 6.432827749043147e-5 0.0
0.0018239596276179795 6.735281480413606e-5 0.0
0.0018543818421130778 6.328516185560389e-5 0.0
0.0013324577765026983 2.3096185010322916e-5 0.0
0.0012595415338181256 9.929907660149985e-6 0.0
0.00131075403265383 6.805620376756202e-6 0.0
0.001250727407273092 -3.821206441409944e-6 0.0
0.0012961489092944349 -6.58449599623414e-6 0.0
0.0012442014578915531 -1.4812203043045742e-5 0.0
0.001285274253950301 -1.6997067753623014e-5 0.0
0.001238180588992173 -2.4098385040796964e-5 0.0
0.0012764283197529756 -2.579644337316474e-5 0.0
0.0012327027907137367 -3.2256842335383435e-5 0.0
0.0012690049104547188 -3.3471847065117584e-5 0.0
0.0012277152896333163 -3.961254969917203e-5 0.0
0.0012626085485984869 -4.084323845091687e-5 0.0
0.001224154535446991 -4.6602580942807144e-5 0.0
0.0012570033785754748 -4.77936184203794e-5 0.0
0.001219880216756357 -5.3454403610677574e-5 0.0
0.0012517389340312493 -5.455954594256399e-5 0.0
0.001214668161053838 -6.024476648332465e-5 0.0
0.0012466892434329986 -6.137429253266604e-5 0.0
0.0012105327605019859 -6.6955678846805e-5 0.0
0.001242127143706121 -6.825686018089281e-5 0.0
0.0012067001211325944 -7.375918339510638e-5 0.0
0.0012367579157131336 -7.520779148144722e-5 0.0
0.0012027604061011876 -8.070386233391917e-5 0.0
0.0012324231882764475 -8.226279816017714e-5 0.0
0.0011995877394030058 -8.758799967803993e-5 0.0
0.0012283814016430716 -8.948641102959854e-5 0.0
0.0011945153897525746 -9.449670821546363e-5 0.0
0.0012240673357871055 -9.689650361573434e-5 0.0
0.0011832152673525026 -0.00010244779460875652 0.0
0.0012219191205536904 -0.00010453237466493254 0.0
0.0011870691070229875 -0.00011016021547333828 0.0
0.0012179256033206254 -0.00011242211705604791 0.0
0.0011847846538746145 -0.00011813336879140796 0.0
0.0012144949111093572 -0.00012059531065005808 0.0
0.001183493934370048 -0.00012620550401486953 0.0
0.0012110072238636928 -0.0001289744560840394 0.0
0.0011807405574586773 -0.0001347359144984477 0.0
0.001196653681438517 -2.8883506502527038e-5 0.0
0.0012075414345725172 -0.0001376471541333315 0.0
0.0011783736516008617 -6.513222156944793e-5 0.0
0.0011511840381327688 -0.00011018728169286273 0.0
0.0011757139523090015 -0.0001435263502409684 0.0
0.001203904839209468 -0.00014660232154372444 0.0
0.0011707457018815311 -0.00015288846568387295 0.0
0.0011432586095163752 -0.0001488849403631217 0.0
0.0011374896595025192 -0.00015864131449337798 0.0
0.001199019269165855 -0.0001564206876180922 0.0
0.0012327004337960416 -0.00014972020507872402 0.0
0.0012498851843712516 -0.00010641827611337061 0.0
0.0012279950295993576 -0.00015990005873731765 0.0
0.0012639292010012085 -0.0001520723730292583 0.0
0.001257939535793433 -0.0001633499954975716 0.0
0.0011103633287312291 -0.0001543179312443078 0.0
0.0011058975362994664 -0.00016373375068891768 0.0
0.001295118026235206 -0.0001548626854641592 0.0
0.0010770259954221927 -0.00015911518565913665 0.0
0.0010744211156731643 -0.00016882044706186076 0.0
0.0012897283898729037 -0.0001663513955882834 0.0
0.0013257448586560543 -0.0001583854164342354 0.0
0.0010435553269707517 -0.00016380370711797546 0.0
0.001040251763433554 -0.00017369900960534628 0.0
0.001321147412078322 -0.0001698690747238285 0.0
0.0013582952037633626 -0.0001614162043228843 0.0
0.0010103319487900237 -0.00016827209272400392 0.0
0.0010067482769262684 -0.00017864157742976953 0.0
0.0013534832848323755 -0.00017358591299060857 0.0
0.0013918149314644742 -0.000164352704679374 0.0
0.0009775471728918539 -0.00017201106510752968 0.0
0.0009719113989500679 -0.00018260952061484458 0.0
0.0013873692266422612 -0.0001768927763052384 0.0
0.0014260771999395948 -0.00016715571512435496 0.0
0.000941684317100839 -0.0001755813472953349 0.0
0.0009369712528151353 -0.0001866009652168415 0.0
0.000904830350731845 -0.0001795387845155793 0.0
0.0009095999470672791 -0.00016800205165280925 0.0
0.0013457886105187138 -0.00018573431572831655 0.0
0.0014213456176709926 -0.00018029939144839627 0.0
0.0014610018970019237 -0.0001698950598561449 0.0
0.001466465845363445 -0.00015631898567578927 0.0
0.0012699051952064376 -6.990413902500941e-5 0.0
0.0015029870345550575 -0.00015870199740948852 0.0
0.0015088684028296813 -0.00014457848986680345 0.0
0.001546750976660037 -0.0001464275034523451 0.0
0.0009029909779454401 -0.00019126550859585597 0.0
0.0008694890201591298 -0.00018282041204683354 0.0
0.000934624475978846 -0.00019842977937322733 0.0
0.001455031413353785 -0.0001838807854274537 0.0
0.0008682292063921089 -0.0001947438420445042 0.0
0.0008343197640251012 -0.00018549894973754773 0.0
0.0012961405047049537 -4.101890621737892e-5 0.0
0.0008331958799237755 -0.0001970362961857474 0.0
0.0007992656895832132 -0.00018748073677969245 0.0
0.0007984387597749209 -0.00019917862305775713 0.0
0.0007649879528250067 -0.00018861526930087833 0.0
0.0007650830286867577 -0.00017730164042212184 0.0
0.000728615721446954 -0.00017854294409513577 0.0
0.0007293053807112217 -0.000166642943412787 0.0
0.0007602886037486035 -0.00019997687446651795 0.0
0.0006900311105347884 -0.00016772180372269266 0.0
0.0006904291293533905 -0.0001555787354485769 0.0
0.0007981120103245109 -0.0002115573476019168 0.0
0.000765740561425141 -0.00021333742093012842 0.0
0.0006520314285930626 -0.00015550239785891816 0.0
0.0006509795400467652 -0.00014354396143917083 0.0
0.0015537070276669424 -0.00013208975625806594 0.0
0.0015932318788842974 -0.00013367312257745592 0.0
0.0007979371426329364 -0.00022414159492418595 0.0
0.0007661612429402105 -0.00022573748020697314 0.0
0.0016006423727393882 -0.00011889090010970187 0.0
0.0016421204447968083 -0.00012052061272910303 0.0
0.001632702297520826 -0.00013687840527490806 0.0
0.0016820478599420528 -0.00012289853835182563 0.0
0.0016733066791834645 -0.00013966091777750108 0.0
0.0017228462106640302 -0.0001244718384096929 0.0
0.001716457313001564 -0.00014109289873386781 0.0
0.0017677946604685868 -0.0001242231031319175 0.0
0.0017572463667045576 -0.0001414652955923517 0.0
0.001773876100280015 -0.00010841955135601615 0.0
0.0018091152097954638 -0.00012489787666024427 0.0
0.001796016516629414 -0.0001423161154012967 0.0
0.0007983552478086282 -0.00023701888580062797 0.0
0.0006104040631195529 -0.0001428647656045394 0.0
0.000608400310379276 -0.00013050155624750063 0.0
0.0017480379617423364 -0.0001594368743472908 0.0
0.0017852464902860566 -0.0001602234039813698 0.0
0.0018323932391987009 -0.0001428684033639867 0.0
0.001740375836200679 -0.00017800931540676185 0.0
0.0007674946326342004 -0.0002386045270623789 0.0
0.0018216426978345495 -0.0001607359492426011 0.0
0.0018677289802070138 -0.00014290564636505987 0.0