# vtk DataFile Version 2.0
phase field modeling fracture
ASCII
DATASET UNSTRUCTURED_GRID
POINTS 2538 float
0.0 0.0 0.0
10.0 0.0 0.0
0.0 10.0 0.0
10.0 10.0 0.0
0.0 4.9995 0.0
0.0 5.0005 0.0
5.0 5.0 0.0
0.9416964895726688 0.0 0.0
1.803581725054446 0.0 0.0
2.592419885431098 0.0 0.0
3.314401822861676 0.0 0.0
3.975193910351406 0.0 0.0
4.579982132660152 0.0 0.0
5.133512780936812 0.0 0.0
5.640130319506143 0.0 0.0
6.103810708661955 0.0 0.0
6.528192895506818 0.0 0.0
6.916607540127679 0.0 0.0
7.272102969376355 0.0 0.0
7.597469242948583 0.0 0.0
7.895259826292669 0.0 0.0
8.167811885738017 0.0 0.0
8.417264413845215 0.0 0.0
8.645575169389538 0.0 0.0
8.854535961159101 0.0 0.0
9.045786767735546 0.0 0.0
9.220828555767493 0.0 0.0
9.38103509633881 0.0 0.0
9.527663687265145 0.0 0.0
9.661865124984566 0.0 0.0
9.784692609918062 0.0 0.0
9.897110148790482 0.0 0.0
10.0 0.09999999999992584 0.0
10.0 0.199999999999856 0.0
10.0 0.2999999999997771 0.0
10.0 0.3999999999996677 0.0
10.0 0.4999999999995511 0.0
10.0 0.5999999999994683 0.0
10.0 0.6999999999993983 0.0
10.0 0.7999999999993286 0.0
10.0 0.8999999999992587 0.0
10.0 0.9999999999991888 0.0
10.0 1.099999999999119 0.0
10.0 1.199999999999033 0.0
10.0 1.299999999998852 0.0
10.0 1.399999999998576 0.0
10.0 1.499999999998284 0.0
10.0 1.599999999997992 0.0
10.0 1.6999999999977 0.0
10.0 1.799999999997408 0.0
10.0 1.899999999997116 0.0
10.0 1.999999999996825 0.0
10.0 2.099999999996533 0.0
10.0 2.199999999996241 0.0
10.0 2.299999999995949 0.0
10.0 2.399999999995657 0.0
10.0 2.499999999995365 0.0
10.0 2.599999999995073 0.0
10.0 2.699999999994782 0.0
10.0 2.79999999999449 0.0
10.0 2.899999999994198 0.0
10.0 2.999999999993906 0.0
10.0 3.099999999993614 0.0
10.0 3.199999999993322 0.0
10.0 3.299999999993029 0.0
10.0 3.399999999992738 0.0
10.0 3.499999999992446 0.0
10.0 3.599999999992154 0.0
10.0 3.699999999991863 0.0
10.0 3.799999999991571 0.0
10.0 3.899999999991278 0.0
10.0 3.999999999991022 0.0
10.0 4.099999999991035 0.0
10.0 4.199999999991187 0.0
10.0 4.299999999991338 0.0
10.0 4.399999999991491 0.0
10.0 4.499999999991642 0.0
10.0 4.599999999991795 0.0
10.0 4.699999999991947 0.0
10.0 4.799999999992099 0.0
10.0 4.89999999999225 0.0
10.0 4.999999999992403 0.0
10.0 5.099999999992555 0.0
10.0 5.199999999992706 0.0
10.0 5.299999999992858 0.0
10.0 5.39999999999301 0.0
10.0 5.499999999993161 0.0
10.0 5.599999999993313 0.0
10.0 5.699999999993466 0.0
10.0 5.799999999993618 0.0
10.0 5.899999999993771 0.0
10.0 5.999999999993922 0.0
10.0 6.099999999994074 0.0
10.0 6.199999999994227 0.0
10.0 6.299999999994378 0.0
10.0 6.39999999999453 0.0
10.0 6.499999999994682 0.0
10.0 6.599999999994833 0.0
10.0 6.699999999994986 0.0
10.0 6.799999999995138 0.0
10.0 6.899999999995289 0.0
10.0 6.999999999995442 0.0
10.0 7.099999999995594 0.0
10.0 7.199999999995747 0.0
10.0 7.299999999995897 0.0
10.0 7.39999999999605 0.0
10.0 7.499999999996202 0.0
10.0 7.599999999996353 0.0
10.0 7.699999999996505 0.0
10.0 7.799999999996658 0.0
10.0 7.899999999996808 0.0
10.0 7.999999999996962 0.0
10.0 8.099999999997113 0.0
10.0 8.199999999997265 0.0
10.0 8.299999999997418 0.0
10.0 8.399999999997569 0.0
10.0 8.499999999997721 0.0
10.0 8.599999999997873 0.0
10.0 8.699999999998024 0.0
10.0 8.799999999998176 0.0
10.0 8.899999999998329 0.0
10.0 8.99999999999848 0.0
10.0 9.099999999998634 0.0
10.0 9.199999999998786 0.0
10.0 9.299999999998937 0.0
10.0 9.399999999999089 0.0
10.0 9.499999999999241 0.0
10.0 9.599999999999392 0.0
10.0 9.699999999999545 0.0
10.0 9.799999999999697 0.0
10.0 9.899999999999848 0.0
9.897110148790565 10.0 0.0
9.784692609918244 10.0 0.0
9.66186512498486 10.0 0.0
9.527663687265571 10.0 0.0
9.381035096339392 10.0 0.0
9.220828555768257 10.0 0.0
9.045786767736512 10.0 0.0
8.854535961160305 10.0 0.0
8.645575169391027 10.0 0.0
8.417264413847017 10.0 0.0
8.167811885740178 10.0 0.0
7.895259826295246 10.0 0.0
7.597469242951631 10.0 0.0
7.272102969379938 10.0 0.0
6.916607540131873 10.0 0.0
6.528192895511704 10.0 0.0
6.103810708667616 10.0 0.0
5.640130319512691 10.0 0.0
5.13351278094435 10.0 0.0
4.579982132668816 10.0 0.0
3.975193910361222 10.0 0.0
3.314401822869852 10.0 0.0
2.592419885437257 10.0 0.0
1.803581725058137 10.0 0.0
0.9416964895740705 10.0 0.0
0.0 9.00010000000243 0.0
0.0 8.000200000005481 0.0
0.0 7.000300000005135 0.0
0.0 6.000400000002569 0.0
0.901790731451151 5.000409820926855 0.0
1.657200899774397 5.000334279910023 0.0
2.289991063707192 5.000271000893629 0.0
2.820065163538221 5.000217993483646 0.0
3.264096435579811 5.000173590356442 0.0
3.636051481595835 5.00013639485184 0.0
3.947629914072366 5.000105237008593 0.0
4.208632181002628 5.0000791367819 0.0
4.427267949625672 5.000057273205037 0.0
4.610414277633563 5.000038958572237 0.0
4.763831845154243 5.000023616815485 0.0
4.892346298799659 5.00001076537012 0.0
4.892346298799748 4.99998923462988 0.0
4.763831845154455 4.999976383184515 0.0
4.610414277633943 4.999961041427763 0.0
4.427267949626277 4.999942726794963 0.0
4.208632181003523 4.9999208632181 0.0
3.94762991407365 4.999894762991407 0.0
3.636051481597624 4.99986360514816 0.0
3.264096435582253 4.999826409643559 0.0
2.820065163541503 4.999782006516354 0.0
2.289991063711534 4.999728999106371 0.0
1.657200899778495 4.999665720089978 0.0
0.9017907314530094 4.999590179073145 0.0
0.0 3.999600000002013 0.0
0.0 2.999700000005187 0.0
0.0 1.99980000000512 0.0
0.0 0.9999000000025537 0.0
9.897889398521345 2.93573355845387 0.0
9.906568249974548 7.060009441434234 0.0
9.913122631074113 3.64016132281653 0.0
9.922462129543863 6.354535290629151 0.0
9.917693659967533 4.354211663134567 0.0
9.909873057440208 5.637584487339942 0.0
9.914183254994697 4.950672966925282 0.0
9.913885043715895 7.666887930262611 0.0
9.91009668007573 2.351889069770817 0.0
9.905135696074536 8.138152454502785 0.0
9.913397459621809 1.849999999997262 0.0
7.099302372137626 0.297750452375005 0.0
7.095143729410097 9.700359990366296 0.0
4.942912558701401 5.095838627899509 0.0
4.315009232304429 5.165022115481685 0.0
4.946182472483878 4.906763777264103 0.0
4.317967462990024 4.825955043772673 0.0
9.916390871492647 8.64999999999792 0.0
9.921504649680616 1.368376469890358 0.0
8.292538149791614 0.206877570318844 0.0
8.292538149793597 9.793122429681448 0.0
5.884594439766573 9.587645267048616 0.0
5.794826292691579 0.3794853783929359 0.0
9.913397459621425 9.049999999998557 0.0
9.908526577714177 0.9568239351922434 0.0
3.456851160380649 5.315740054130451 0.0
3.457889657868442 4.707121019609468 0.0
8.945214200703926 0.1503383337970344 0.0
8.950161364448409 9.8413906539257 0.0
9.913862335499305 4.055887885208452 0.0
9.916697353372683 4.650158482607802 0.0
9.919076340414442 6.049999999994006 0.0
9.906994308667635 5.25749687748192 0.0
9.917490342358025 6.655979201891897 0.0
9.915757520293784 7.343848891656911 0.0
9.910049507471042 3.363474386285078 0.0
9.914471988502868 2.647400064832979 0.0
9.91474124160965 9.337490423485129 0.0
9.916971008170838 0.6499999999994355 0.0
4.307157269264427 9.509674045029644 0.0
4.331527375865619 0.4401616696422582 0.0
9.45434939180249 9.878397030523757 0.0
9.457696120412969 0.1270877537061785 0.0
2.555070293622606 5.422044496190925 0.0
2.566232917480916 4.608001224030952 0.0
3.026511860837692 9.332320638257093 0.0
2.945561971800619 0.5895662714727601 0.0
7.7395404387124 0.2511088946967771 0.0
7.736379255744154 9.745848826372828 0.0
4.687135269408529 5.122111433928926 0.0
4.688420821504113 4.871895064967488 0.0
9.910554884115975 0.3448356354522978 0.0
9.911230082250466 9.65764729394159 0.0
9.921953841410854 6.851023993342036 0.0
9.912065178606017 5.448170483544033 0.0
9.911660025326261 3.861846960030188 0.0
9.914847467973438 3.14501593945607 0.0
9.913397459621425 5.849999999993703 0.0
9.913397459621425 7.849999999996735 0.0
9.906916878988277 2.15455769998631 0.0
9.913397459621425 8.349999999997479 0.0
9.909472363117661 1.640528221515488 0.0
9.913987325695956 1.152857110636247 0.0
9.913397459621425 8.849999999998241 0.0
0.9100099990995943 2.614215977520411 0.0
0.8395284981715456 7.451196254860987 0.0
9.723278867451556 9.898135916635193 0.0
9.723316350887044 0.09841820909386662 0.0
1.385819164827588 4.454539963646463 0.0
1.338343629665047 5.523111536005823 0.0
1.377179700550677 0.6809168304959698 0.0
1.418060461092743 9.285896715136046 0.0
9.91268220142518 0.1457914080939694 0.0
9.906737126737994 9.845745933882352 0.0
0.7108351382691361 6.537941170074089 0.0
1.527735020267026 6.915620208855231 0.0
1.630993885659103 7.838271825205868 0.0
2.232760943566823 7.370850737296832 0.0
2.243414218068206 6.688299277952821 0.0
2.779655053105118 7.021588754814074 0.0
2.80227799359795 7.632420170547022 0.0
3.282022065908813 7.305859666021318 0.0
3.327597298795347 7.857554136825748 0.0
3.743210251018715 7.549183328204379 0.0
3.716353232200752 7.062036086888612 0.0
4.111978858674101 7.27497101169417 0.0
4.104192177581432 6.879858986267289 0.0
4.436230765617037 7.045693351607117 0.0
4.430360014817357 6.703971783962796 0.0
4.732390145036301 6.849841042423394 0.0
5.056161327708878 5.095276573498806 0.0
5.111586796021131 4.999081142133581 0.0
5.169267363407189 5.09444870412406 0.0
5.223795108752053 4.996986220359468 0.0
5.281480803887719 5.092780870372803 0.0
5.335670761900611 4.994887492556936 0.0
5.393485214772442 5.090486192743301 0.0
5.447323082877892 4.992601527033996 0.0
5.505243219343024 5.087953380710069 0.0
5.558739102026105 4.990287787962959 0.0
5.616491581184779 5.085335255235766 0.0
5.669852346908056 4.9879269227514 0.0
5.727502713908907 5.082679981817038 0.0
5.780766004135139 4.988313988715834 0.0
5.838244881129535 5.080480568766611 0.0
5.891357695677371 4.986433849408193 0.0
5.948696036767613 5.077969900389505 0.0
6.001601341641615 4.981313698556656 0.0
6.058851024265095 5.074871552128682 0.0
6.111614020704875 4.978360695880202 0.0
6.168801161530775 5.072044953270978 0.0
6.221368818778567 4.975825765213497 0.0
6.278268309066882 5.066182320461055 0.0
6.330814273567539 4.972837984645718 0.0
6.387565032421376 5.062889771971895 0.0
6.437476667631405 4.971693683589553 0.0
[...]
POINT_DATA 2538
VECTORS disp float
1.702291631175832e-11 4.202538306384116e-11 0.0
3.4410053438042785e-11 -9.366853582347586e-11 0.0
0.003899999987571932 3.1922417739519905e-11 0.0
0.0038999999637368606 -9.984800593377636e-11 0.0
0.0012792363048281254 0.000527521151978911 0.0
0.0028181221991673785 0.0002943547941783296 0.0
0.0019184722149477784 0.00011100969656332435 0.0
4.269073657373823e-12 2.9556314641231655e-12 0.0
8.040803203563498e-12 9.415983140385616e-12 0.0
7.204135089840798e-12 5.565625561022654e-12 0.0
6.94875195576772e-12 5.128824652153957e-12 0.0
6.375276503422223e-12 3.719359515167648e-12 0.0
5.8909216681038145e-12 2.5644430528691095e-12 0.0
5.4437259310652654e-12 1.4020170120504722e-12 0.0
5.095933043419561e-12 1.720762726763577e-13 0.0
4.4253994976689305e-12 -1.1767171305169118e-12 0.0
4.683552884928038e-12 -2.3951101514356903e-12 0.0
4.502636000850336e-12 -3.8246582569669055e-12 0.0
4.5439796348266104e-12 -5.362268967751256e-12 0.0
4.726249845867305e-12 -6.907518078446783e-12 0.0
4.716721382103466e-12 -8.352520503861914e-12 0.0
5.042648950679989e-12 -1.0087295565479081e-11 0.0
5.076343412378192e-12 -1.1525282165888794e-11 0.0
5.3965941752163454e-12 -1.3237575670468118e-11 0.0
5.54597023842225e-12 -1.5160189456884356e-11 0.0
5.81410938945671e-12 -1.6979562630833712e-11 0.0
6.1295922358946e-12 -1.9174661965113473e-11 0.0
6.536301623139647e-12 -2.164587829053937e-11 0.0
7.238647025406273e-12 -2.467822158877621e-11 0.0
7.32657008024197e-12 -2.791667260033898e-11 0.0
1.0025561591905387e-11 -3.5474188058539916e-11 0.0
4.496496641311762e-12 -3.232952908665766e-11 0.0
4.89120601800468e-5 -6.394526937524127e-5 0.0
8.474707005010459e-5 -0.00011003551040317299 0.0
0.00011948118885327834 -0.00015012626071371835 0.0
0.00015269898206258145 -0.00018650471516113744 0.0
0.00018484912596140833 -0.0002202967366359243 0.0
0.00021658284643420386 -0.0002523760244886171 0.0
0.00024842090390206513 -0.00028286998666035313 0.0
0.00028006241413705676 -0.00031203173036409656 0.0
0.0003117836717880508 -0.0003401295921412873 0.0
0.000343664325004793 -0.000367164827689809 0.0
0.00037572005592101306 -0.00039337184664595256 0.0
0.00040819479615891735 -0.0004187559696634531 0.0
0.0004408431313484955 -0.00044331784547615153 0.0
0.00047382618881276675 -0.0004672454148552065 0.0
0.0005073418410084699 -0.0004904884044331519 0.0
0.0005410258929438595 -0.0005130229777083375 0.0
0.0005751145071260906 -0.0005349838455248004 0.0
0.0006095987955544906 -0.000556261354983459 0.0
0.0006444503021186711 -0.0005769774520151669 0.0
0.0006796865808127034 -0.0005971257214885954 0.0
0.0007153514695520034 -0.0006167079011405965 0.0
0.0007513577012131238 -0.0006357112533859198 0.0
0.0007879225321923486 -0.0006542219127873446 0.0
0.00082469454587402 -0.0006721337897256359 0.0
0.0008620722121152522 -0.000689538382859494 0.0
0.0008996268305185624 -0.0007063457644571822 0.0
0.0009376459273390158 -0.0007226564603397002 0.0
0.0009759729768801166 -0.0007383609716019261 0.0
0.0010148303623315452 -0.0007535878923755051 0.0
0.0010538376197990439 -0.0007682465941156902 0.0
0.001093371616063742 -0.0007824065920444513 0.0
0.0011331893819844466 -0.0007959642506181683 0.0
0.001173390343895466 -0.0008090041728789165 0.0
0.0012138316113859725 -0.0008214662948690937 0.0
0.0012547555930649084 -0.0008334130590237976 0.0
0.0012958001634210288 -0.0008447418639258546 0.0
0.001337210625471263 -0.0008555229484472 0.0
0.0013788399825233014 -0.0008656619010783033 0.0
0.0014207589357832955 -0.0008751854855868441 0.0
0.0014629010761685027 -0.0008841846702957538 0.0
0.0015052319235905312 -0.0008924971706650137 0.0
0.00154784620006864 -0.0009002825553537328 0.0
0.0015906704508297715 -0.0009074068569138763 0.0
0.0016336109785734776 -0.0009139914926783401 0.0
0.0016767649389600819 -0.0009198590252405674 0.0
0.0017198991176160469 -0.000925165179464055 0.0
0.0017632359069829563 -0.0009298676802554645 0.0
0.0018065868202534465 -0.0009338865266299773 0.0
0.001849985566402851 -0.0009373586492267289 0.0
0.0018935339570373016 -0.0009401443242778452 0.0
0.001936708334700061 -0.0009421573000467002 0.0
0.0019802939105785294 -0.0009436526099280067 0.0
0.0020229892347639654 -0.0009443609755323842 0.0
0.0020661203318921113 -0.0009444804749943217 0.0
0.0021072551434914164 -0.0009434513080979888 0.0
0.002149925573196037 -0.0009418848270226954 0.0
0.002191034447755409 -0.0009396086389636471 0.0
0.0022319140254122177 -0.0009360891347051562 0.0
0.002272724700433502 -0.0009318977168572185 0.0
0.002313448620906626 -0.0009261809760363181 0.0
0.0023540083812435978 -0.0009196247510508872 0.0
0.002394718949453983 -0.0009116730222643918 0.0
0.0024358249400037485 -0.0009028263020839549 0.0
0.002476972257175332 -0.0008926001000755012 0.0
0.0025186083792644565 -0.0008814762157627818 0.0
0.002560369011281544 -0.0008695914137428055 0.0
0.0026018899452087533 -0.0008568361230602246 0.0
0.0026434959749965536 -0.0008435021225581973 0.0
0.0026851621881582577 -0.0008294390506483117 0.0
0.002726763384090308 -0.0008146735538391128 0.0
0.002768027121882452 -0.000799360175446836 0.0
0.002809384969473738 -0.0007833253667247091 0.0
0.002850293864807053 -0.0007666960181477297 0.0
0.002890969843525286 -0.0007496119189381347 0.0
0.0029315778882058716 -0.0007318065009529233 0.0
0.0029716871150438987 -0.0007135277987807316 0.0
0.0030116228308060726 -0.0006946713283942486 0.0
0.003051211007738904 -0.0006752459687487253 0.0
0.0030906182240004448 -0.0006552470730179679 0.0
0.003129720391534904 -0.0006345977837717063 0.0
0.0031685407914361294 -0.000613331834051671 0.0
0.0032068779923293527 -0.0005915172139249398 0.0
0.003245019216681638 -0.0005691065753468037 0.0
0.0032829415645300175 -0.000546010528201719 0.0
0.003320475901082114 -0.00052226324664946 0.0
0.003357813129725577 -0.0004978951985561611 0.0
0.0033950674967167293 -0.00047271065489771136 0.0
0.0034319675978470134 -0.0004467432766813621 0.0
0.0034686007974486697 -0.00042004478875631716 0.0
0.003505287339244638 -0.00039244522858214784 0.0
0.003542003832083325 -0.0003637953811750411 0.0
0.003578539591469164 -0.00033403522865485476 0.0
0.003614993659225545 -0.00030312321569581747 0.0
0.0036516713780013472 -0.0002707860417953074 0.0
0.0036890206766678098 -0.00023664543651099812 0.0
0.0037265506828757415 -0.00020046455282128644 0.0
0.0037646940802366123 -0.00016140543565057845 0.0
0.003805172785726238 -0.00011810972047102819 0.0
0.00384672171954281 -6.837262713026985e-5 0.0
0.0038999999949029833 -3.073559200506191e-11 0.0
0.0038999999890224554 -3.4028275511548825e-11 0.0
0.003899999992277071 -2.344313988622211e-11 0.0
0.003899999992293949 -2.0714119059690334e-11 0.0
0.0038999999928286525 -1.7523669990926666e-11 0.0
0.003899999993185689 -1.515189755011351e-11 0.0
0.003899999993332297 -1.3337483307341642e-11 0.0
0.00389999999359069 -1.1705257220111455e-11 0.0
0.003899999993684037 -1.0199268739981525e-11 0.0
0.0038999999938579464 -8.739723899376292e-12 0.0
0.0038999999941355763 -7.559228727442264e-12 0.0
0.0038999999941714118 -6.027604856066026e-12 0.0
0.003899999994324759 -4.879826570123105e-12 0.0
0.003899999994446446 -3.5376213977419343e-12 0.0
0.003899999994500469 -2.2529129901186055e-12 0.0
0.0038999999944935135 -8.827027667276671e-13 0.0
0.0038999999945269655 4.733276011453048e-13 0.0
0.003899999994015728 2.0142536968507497e-12 0.0
0.0038999999943826608 3.2646255303737225e-12 0.0
0.0038999999935325183 4.868484151119588e-12 0.0
0.003899999993526293 5.931182154402218e-12 0.0
0.0038999999932155054 7.0985591747320245e-12 0.0
0.0038999999934628466 7.417655894163646e-12 0.0
0.0038999999933497093 1.013914106284204e-11 0.0
0.003899999996526465 4.4728574128979455e-12 0.0
0.003609719034894869 0.00019829323772639003 0.0
0.0033586417532143007 0.00028830790507679434 0.0
0.0031323050811856755 0.00031813600813371127 0.0
0.0029407425367613863 0.0003118136884968072 0.0
0.0028114663263822024 0.00017402644523366054 0.0
0.0027910433010443973 0.00011243718019445611 0.0
0.002744529835257998 8.759749194151454e-5 0.0
0.0026895379651349963 8.229520972859945e-5 0.0
0.0026262134135910595 8.730733217244776e-5 0.0
0.0025587816478948107 9.442937435082097e-5 0.0
0.0024881699713518285 0.00010167977736400262 0.0
0.002415404235653452 0.0001100825206493529 0.0
0.0023389791278713326 0.0001168733028552059 0.0
0.002258148987242965 0.00012132172198340377 0.0
0.0021688662128723003 0.00012283749115420502 0.0
0.0020625008459858583 0.00012263656022956963 0.0
0.001784038385094498 0.00015034645179288044 0.0
0.0016893967212044875 0.00016324768799278936 0.0
0.0016114893852095873 0.00016891804773158198 0.0
0.0015437896976641112 0.00017292053953008222 0.0
0.0014826346947725785 0.0001767510842519057 0.0
0.0014274939436268428 0.00018134981990474834 0.0
0.001378129889105919 0.00018807780319751258 0.0
0.0013362405128594995 0.0001986142729306075 0.0
0.0013036634886491034 0.00021793918342604456 0.0
0.001281581496779456 0.0002504234191138614 0.0
0.001274957396389912 0.0003065997282781279 0.0
0.0012750718272839887 0.00039260695612936767 0.0
0.0011332047437799405 0.0005398328915852753 0.0
0.0009212630839272336 0.0005090167735375339 0.0
0.0006427534420906474 0.0004173829854304123 0.0
0.0003408497207463488 0.00027207474613032134 0.0
0.0010224917134620036 -0.0007217695502396333 0.0
0.0027595387128587848 -0.0007617696154051364 0.0
0.0013080223253125057 -0.0008158561809234839 0.0
0.0024634080649410905 -0.0008591217120903926 0.0
0.0016110082724874457 -0.0008786409716556493 0.0
0.002167186004582126 -0.0009018035129639697 0.0
0.0018706722881239235 -0.0009044504384359531 0.0
0.0030066044237685007 -0.0006630976929255149 0.0
0.0008007403669979383 -0.0006325066602261234 0.0
0.0031928472252724317 -0.0005655350676172845 0.0
0.0006204192701189713 -0.0005382973127930688 0.0
6.412460903875198e-5 -1.1849142149366386e-5 0.0
0.0038338278500194096 -1.0946703178465e-5 0.0
0.0020821649559181485 0.00014140649252902766 0.0
0.002385931024424899 0.00013386334566352278 0.0
0.0017545602293398176 0.00015527215766737528 0.0
0.0014935595704999366 0.00018998524324542163 0.0
0.0033856036436927567 -0.0004522271435677965 0.0
0.0004567852770657261 -0.0004352738097428798 0.0
4.475009194616705e-5 -2.143458969981559e-5 0.0
0.003853376035952567 -1.8515847182744795e-5 0.0
0.0038058097974610194 2.7690764478865357e-6 0.0
8.594128858814598e-5 3.1255743020949832e-6 0.0
0.003533762187613683 -0.00034517960263082587 0.0
0.0003215525251833543 -0.0003283627215765759 0.0
0.0025970121077139915 0.00011801442881936673 0.0
0.001326813422807133 0.00020620436572803643 0.0
3.363890296149549e-5 -2.3219767748089952e-5 0.0
0.0038628803521217024 -2.1035036144963403e-5 0.0
0.0014830142146408415 -0.0008553192315143508 0.0
0.0017393958776606435 -0.0008945866769874442 0.0
0.0023373668200291453 -0.0008838950594394201 0.0
0.002004680671436524 -0.0009063539737943936 0.0
0.0025899663192690556 -0.0008225217004736373 0.0
0.0028756900800079215 -0.0007209494838602425 0.0
0.0011941158929549816 -0.0007831223761784879 0.0
0.00091201772875594 -0.0006837563498212294 0.0
0.0036393229777173714 -0.00025947391853596303 0.0
0.00022422825538115677 -0.00024341369208962456 0.0
0.0037798091313851713 2.3861097291257625e-5 0.0
0.0001081010814019649 1.9160262065395358e-5 0.0
0.0038690252134780953 -2.3864766695718723e-5 0.0
3.126931963702002e-5 -2.8325259380366507e-5 0.0
0.0027262977231990145 0.00011085174912763761 0.0
0.001239831859751268 0.00024101307806971879 0.0
0.0037311211355697876 4.455965937508696e-5 0.0
0.00015181171446213167 3.832922643140532e-5 0.0
5.397229754385191e-5 -1.797651460280974e-5 0.0
0.0038434887943797195 -1.6012273622561754e-5 0.0
0.0022346201470848604 0.00014295195674786566 0.0
0.0016214424635098976 0.00018266640439264315 0.0
0.00012425915198200951 -0.00014075798423220006 0.0
0.003761004033335175 -0.000146680129408812 0.0
0.0026711082433445417 -0.0007990490802474141 0.0
0.0020869604676240472 -0.0009077286692419671 0.0
0.0014007776813432956 -0.0008374518768831312 0.0
0.0011063535131134873 -0.0007570169179617165 0.0
0.0022550879917272964 -0.0008938718893590234 0.0
0.003079356403798002 -0.0006279323723852193 0.0
0.0007282885305956873 -0.000595647943108255 0.0
0.0032730667363883624 -0.0005222448627288622 0.0
0.0005475840486130766 -0.0004930015569092715 0.0
0.0003853382950218396 -0.0003807066103658785 0.0
0.003460028501970707 -0.00039991031482528966 0.0
0.0007657694400145583 0.0002827250617714886 0.0
0.0032325987025993734 0.00020860569908643148 0.0
0.0038698060215753235 -2.8462859122104874e-5 0.0
2.7201551171141892e-5 -2.8944413688500878e-5 0.0
0.0011983303258354362 0.00033300257776722864 0.0
0.0028347518035641743 0.0001521027159319231 0.0
0.0001742086540205894 6.10769929894677e-5 0.0
0.0037262316458344584 5.7868786255171554e-5 0.0
5.4267268424492825e-5 -6.317463969406648e-5 0.0
0.003838156865199928 -6.706884856749926e-5 0.0
0.0030270226567245206 0.00022566554526611143 0.0
0.003091010696647668 0.00018542955943080165 0.0
0.003334119863346106 0.00015111982877131968 0.0
0.0031951831418234643 0.00015937404647321056 0.0
0.0030074439146288248 0.0001704969805176685 0.0
0.003075865505510847 0.00016641314996537293 0.0
0.003255385844348337 0.00014583070788447224 0.0
0.0031435918401461083 0.00015666559239144363 0.0
0.003312810374661795 0.0001308268587141079 0.0
0.003209936840917371 0.00014002657029804915 0.0
0.0030512973105640204 0.00016166924624476105 0.0
0.0031124301839385348 0.00014361986134788968 0.0
0.0029759606270661288 0.00016073465018417128 0.0
0.003025560243668541 0.00014103517894315155 0.0
0.002901364154083114 0.00015553463511739306 0.0
0.0029461734676796466 0.00013218806431112895 0.0
0.0020334585584036013 9.490577349805792e-5 0.0
0.0019136053633966301 7.53725281610017e-5 0.0
0.002007091345370544 6.583627958935502e-5 0.0
0.0019096992066187546 5.177904940205621e-5 0.0
0.001991593639367937 4.361072549067649e-5 0.0
0.0019076329280756862 3.275859875753649e-5 0.0
0.0019815673088013587 2.4718106681767457e-5 0.0
0.0019055351590057004 1.522994654096454e-5 0.0
0.001974238826389972 7.564887165196977e-6 0.0
0.0019037108423136874 -1.0804562502358578e-6 0.0
0.001968654390475767 -8.332976230970234e-6 0.0
0.0019022515484793077 -1.642981121818408e-5 0.0
0.0019643067920263823 -2.3806799897913218e-5 0.0
0.0019027364908565487 -3.1387925532617414e-5 0.0
0.001960879916259875 -3.8719896747935524e-5 0.0
0.0019016491646426203 -4.60838038189443e-5 0.0
0.0019577469572352522 -5.329684133943547e-5 0.0
0.001898717873125246 -6.052972690008136e-5 0.0
0.0019546499888471814 -6.771881330360588e-5 0.0
0.0018972119503298682 -7.478777920201563e-5 0.0
0.0019520326299150691 -8.208187786367055e-5 0.0
0.0018959544704185561 -8.904206717277343e-5 0.0
0.0019478641190082836 -9.635971792900358e-5 0.0
0.0018943801112654935 -0.00010338127360591628 0.0
0.0019453102041637157 -0.00011076389810079146 0.0
0.001893820121556291 -0.00011748259203319936 0.0
0.0019430886214202006 -0.00012527352775250946 0.0
0.0018898502153005176 -0.0001311434141161293 0.0
0.0019403236021934514 -0.00013988939511850305 0.0
0.001875981369468193 -0.0001459725377787633 0.0
0.0019410067481579413 -0.00015499848886956662 0.0
0.0018867131694517095 -0.0001620510561998877 0.0
0.0019384865810731949 -0.00017018523001542158 0.0
0.0018871295046868329 -0.00017764240293207564 0.0
0.0019368168227874587 -0.0001858202387781252 0.0
0.0018889715267256739 -0.00019340687058451043 0.0
0.0019349361880393106 -0.0002017259493801525 0.0
0.0018883592121955628 -0.00020974924002886946 0.0
0.0018391478873723017 8.177955896343528e-6 0.0
0.0019330211666009813 -0.00021808698821164965 0.0
0.0018410793376536644 -6.670823842145108e-5 0.0
0.0018276688241465509 -0.0001578582856838564 0.0
0.0018839551084066128 -0.00022627717429180962 0.0
0.001930740766115376 -0.00023487964847201416 0.0
0.0018796212228710475 -0.00024385199242763647 0.0
0.0018336092635777852 -0.00023362334505093102 0.0
0.0018280391464238228 -0.00025205734646549174 0.0
0.0019265487983857119 -0.0002531527504747935 0.0
0.0019783046877611776 -0.00024353012493968568 0.0
0.0019878501950395784 -0.00016213990144458602 0.0
0.0019744038639406157 -0.00026234035152833364 0.0
0.002029301812746611 -0.0002508989731439363 0.0
0.002023593661633452 -0.00027145546099716474 0.0
0.0017825158099846273 -0.000241333144284734 0.0
0.0017787957795488015 -0.0002594196159820867 0.0
0.0020801622314992477 -0.00025898876437634513 0.0
0.0017303715094167944 -0.00024809502120436854 0.0
0.00172962021324215 -0.00026707952087135514 0.0
0.002075371681898597 -0.00027980281461177046 0.0
0.0021301287673154566 -0.00026828320063092655 0.0
0.0016778653662969795 -0.0002549701878386281 0.0
0.001675882028511103 -0.00027452952788258695 0.0
0.0021265071094751175 -0.00028898294949627476 0.0
0.002182763306730628 -0.00027675664586324414 0.0
0.0016255722532175607 -0.00026182469168554566 0.0
0.0016231005709838005 -0.00028256210360415556 0.0
0.0021789838768640087 -0.0002985469914526133 0.0
0.002236704380647186 -0.00028509318147985435 0.0
0.0015736724657248293 -0.00026758787666722 0.0
0.0015677363529906841 -0.0002889679403428914 0.0
0.0022336145525312435 -0.0003074584188700653 0.0
0.002291607250370665 -0.0002932222768171323 0.0
0.0015166255501251004 -0.00027333883093978733 0.0
0.0015120411957626411 -0.0002959488643336209 0.0
0.0014579814648231048 -0.00028043016417924114 0.0
0.0014622939342973122 -0.0002564875248714554 0.0
0.0021704987261095903 -0.00032004605429827014 0.0
0.0022882262677094904 -0.00031648503978910856 0.0
0.00234733361498328 -0.0003011951353353558 0.0
0.0023516691152789294 -0.000277320480338513 0.0
0.00200040785562244 -8.980020737536597e-5 0.0
0.0024095988755668198 -0.00028484287259598684 0.0
0.002414424474201303 -0.00026007258117171234 0.0
0.002474166215092456 -0.0002667866215161623 0.0
0.0014579294442892687 -0.00030486826575790713 0.0
0.0014014764652694645 -0.00028672525859525615 0.0
0.0015109675021181418 -0.00032024720287876615 0.0
0.002342228462006508 -0.0003256959161324423 0.0
0.0014021064417579741 -0.00031181116978030277 0.0
0.0013450179095960701 -0.0002922771988814972 0.0
0.0020234754555338826 -3.0018097773742542e-5 0.0
0.0013454507516512417 -0.00031684900461567494 0.0
0.0012884715870362894 -0.00029698864545207426 0.0
0.0012890813098398537 -0.00032216730002014934 0.0
0.0012328809726853912 -0.0003004658183677603 0.0
0.0012310353349534043 -0.0002759118308859638 0.0
0.0011721613489931368 -0.00028006187080008516 0.0
0.0011711763201258888 -0.0002541283795076038 0.0
0.001226804790611758 -0.00032535574637825715 0.0
0.001107995307240397 -0.00025855916808212906 0.0
0.0011065374880996808 -0.00023200097045618465 0.0
0.0012901495964739598 -0.0003488076114953095 0.0
0.0012371836922507088 -0.0003540731345325373 0.0
0.001044864795413873 -0.00023435561887694416 0.0
0.001041321238891306 -0.00020848503322213046 0.0
0.0024806909763863518 -0.00024171120208173514 0.0
0.0025427890144560476 -0.00024806533710744044 0.0
0.001291082051221648 -0.0003757892621665215 0.0
0.0012387655946722413 -0.0003808845312750125 0.0
0.002550040732824781 -0.00022221767491802498 0.0
0.0026150904841654742 -0.00022875684561622617 0.0
0.0026051005433448985 -0.000257091435888087 0.0
0.002677819056815357 -0.0002362066052325202 0.0
0.002668971786515501 -0.000265205256397391 0.0
0.0027417077250510525 -0.0002420553007350137 0.0
0.0027364541193522734 -0.00027079166913784804 0.0
0.002811549230243327 -0.0002446407068617599 0.0
0.0027999637704129604 -0.0002739856762341333 0.0
0.0028168118203822745 -0.00021709804294642556 0.0
0.002876145471473548 -0.00024824730284989864 0.0
0.0028605799821001853 -0.00027744162997559596 0.0
0.0012926060633997388 -0.00040327915268114413 0.0
0.0009763914561358917 -0.00021018028732508752 0.0
0.0009716282007155342 -0.00018392969639979899 0.0
0.0027907070448585686 -0.0003040286946750083 0.0
0.0028489416926095346 -0.00030697768487953985 0.0
0.0029176711093345633 -0.00027995863115042394 0.0
0.0027840096407978953 -0.0003346514423793247 0.0
0.00124150660147262 -0.00040854227786270265 0.0
0.002906135644967776 -0.0003089737051120604 0.0
0.00297331694174205 -0.0002812299227626417 0.0