# vtk DataFile Version 2.0
phase field modeling fracture
ASCII
DATASET UNSTRUCTURED_GRID
POINTS 2538 float
0.0 0.0 0.0
10.0 0.0 0.0
0.0 10.0 0.0
10.0 10.0 0.0
0.0 4.9995 0.0
0.0 5.0005 0.0
5.0 5.0 0.0
0.9416964895726688 0.0 0.0
1.803581725054446 0.0 0.0
2.592419885431098 0.0 0.0
3.314401822861676 0.0 0.0
3.975193910351406 0.0 0.0
4.579982132660152 0.0 0.0
5.133512780936812 0.0 0.0
5.640130319506143 0.0 0.0
6.103810708661955 0.0 0.0
6.528192895506818 0.0 0.0
6.916607540127679 0.0 0.0
7.272102969376355 0.0 0.0
7.597469242948583 0.0 0.0
7.895259826292669 0.0 0.0
8.167811885738017 0.0 0.0
8.417264413845215 0.0 0.0
8.645575169389538 0.0 0.0
8.854535961159101 0.0 0.0
9.045786767735546 0.0 0.0
9.220828555767493 0.0 0.0
9.38103509633881 0.0 0.0
9.527663687265145 0.0 0.0
9.661865124984566 0.0 0.0
9.784692609918062 0.0 0.0
9.897110148790482 0.0 0.0
10.0 0.09999999999992584 0.0
10.0 0.199999999999856 0.0
10.0 0.2999999999997771 0.0
10.0 0.3999999999996677 0.0
10.0 0.4999999999995511 0.0
10.0 0.5999999999994683 0.0
10.0 0.6999999999993983 0.0
10.0 0.7999999999993286 0.0
10.0 0.8999999999992587 0.0
10.0 0.9999999999991888 0.0
10.0 1.099999999999119 0.0
10.0 1.199999999999033 0.0
10.0 1.299999999998852 0.0
10.0 1.399999999998576 0.0
10.0 1.499999999998284 0.0
10.0 1.599999999997992 0.0
10.0 1.6999999999977 0.0
10.0 1.799999999997408 0.0
10.0 1.899999999997116 0.0
10.0 1.999999999996825 0.0
10.0 2.099999999996533 0.0
10.0 2.199999999996241 0.0
10.0 2.299999999995949 0.0
10.0 2.399999999995657 0.0
10.0 2.499999999995365 0.0
10.0 2.599999999995073 0.0
10.0 2.699999999994782 0.0
10.0 2.79999999999449 0.0
10.0 2.899999999994198 0.0
10.0 2.999999999993906 0.0
10.0 3.099999999993614 0.0
10.0 3.199999999993322 0.0
10.0 3.299999999993029 0.0
10.0 3.399999999992738 0.0
10.0 3.499999999992446 0.0
10.0 3.599999999992154 0.0
10.0 3.699999999991863 0.0
10.0 3.799999999991571 0.0
10.0 3.899999999991278 0.0
10.0 3.999999999991022 0.0
10.0 4.099999999991035 0.0
10.0 4.199999999991187 0.0
10.0 4.299999999991338 0.0
10.0 4.399999999991491 0.0
10.0 4.499999999991642 0.0
10.0 4.599999999991795 0.0
10.0 4.699999999991947 0.0
10.0 4.799999999992099 0.0
10.0 4.89999999999225 0.0
10.0 4.999999999992403 0.0
10.0 5.099999999992555 0.0
10.0 5.199999999992706 0.0
10.0 5.299999999992858 0.0
10.0 5.39999999999301 0.0
10.0 5.499999999993161 0.0
10.0 5.599999999993313 0.0
10.0 5.699999999993466 0.0
10.0 5.799999999993618 0.0
10.0 5.899999999993771 0.0
10.0 5.999999999993922 0.0
10.0 6.099999999994074 0.0
10.0 6.199999999994227 0.0
10.0 6.299999999994378 0.0
10.0 6.39999999999453 0.0
10.0 6.499999999994682 0.0
10.0 6.599999999994833 0.0
10.0 6.699999999994986 0.0
10.0 6.799999999995138 0.0
10.0 6.899999999995289 0.0
10.0 6.999999999995442 0.0
10.0 7.099999999995594 0.0
10.0 7.199999999995747 0.0
10.0 7.299999999995897 0.0
10.0 7.39999999999605 0.0
10.0 7.499999999996202 0.0
10.0 7.599999999996353 0.0
10.0 7.699999999996505 0.0
10.0 7.799999999996658 0.0
10.0 7.899999999996808 0.0
10.0 7.999999999996962 0.0
10.0 8.099999999997113 0.0
10.0 8.199999999997265 0.0
10.0 8.299999999997418 0.0
10.0 8.399999999997569 0.0
10.0 8.499999999997721 0.0
10.0 8.599999999997873 0.0
10.0 8.699999999998024 0.0
10.0 8.799999999998176 0.0
10.0 8.899999999998329 0.0
10.0 8.99999999999848 0.0
10.0 9.099999999998634 0.0
10.0 9.199999999998786 0.0
10.0 9.299999999998937 0.0
10.0 9.399999999999089 0.0
10.0 9.499999999999241 0.0
10.0 9.599999999999392 0.0
10.0 9.699999999999545 0.0
10.0 9.799999999999697 0.0
10.0 9.899999999999848 0.0
9.897110148790565 10.0 0.0
9.784692609918244 10.0 0.0
9.66186512498486 10.0 0.0
9.527663687265571 10.0 0.0
9.381035096339392 10.0 0.0
9.220828555768257 10.0 0.0
9.045786767736512 10.0 0.0
8.854535961160305 10.0 0.0
8.645575169391027 10.0 0.0
8.417264413847017 10.0 0.0
8.167811885740178 10.0 0.0
7.895259826295246 10.0 0.0
7.597469242951631 10.0 0.0
7.272102969379938 10.0 0.0
6.916607540131873 10.0 0.0
6.528192895511704 10.0 0.0
6.103810708667616 10.0 0.0
5.640130319512691 10.0 0.0
5.13351278094435 10.0 0.0
4.579982132668816 10.0 0.0
3.975193910361222 10.0 0.0
3.314401822869852 10.0 0.0
2.592419885437257 10.0 0.0
1.803581725058137 10.0 0.0
0.9416964895740705 10.0 0.0
0.0 9.00010000000243 0.0
0.0 8.000200000005481 0.0
0.0 7.000300000005135 0.0
0.0 6.000400000002569 0.0
0.901790731451151 5.000409820926855 0.0
1.657200899774397 5.000334279910023 0.0
2.289991063707192 5.000271000893629 0.0
2.820065163538221 5.000217993483646 0.0
3.264096435579811 5.000173590356442 0.0
3.636051481595835 5.00013639485184 0.0
3.947629914072366 5.000105237008593 0.0
4.208632181002628 5.0000791367819 0.0
4.427267949625672 5.000057273205037 0.0
4.610414277633563 5.000038958572237 0.0
4.763831845154243 5.000023616815485 0.0
4.892346298799659 5.00001076537012 0.0
4.892346298799748 4.99998923462988 0.0
4.763831845154455 4.999976383184515 0.0
4.610414277633943 4.999961041427763 0.0
4.427267949626277 4.999942726794963 0.0
4.208632181003523 4.9999208632181 0.0
3.94762991407365 4.999894762991407 0.0
3.636051481597624 4.99986360514816 0.0
3.264096435582253 4.999826409643559 0.0
2.820065163541503 4.999782006516354 0.0
2.289991063711534 4.999728999106371 0.0
1.657200899778495 4.999665720089978 0.0
0.9017907314530094 4.999590179073145 0.0
0.0 3.999600000002013 0.0
0.0 2.999700000005187 0.0
0.0 1.99980000000512 0.0
0.0 0.9999000000025537 0.0
9.897889398521345 2.93573355845387 0.0
9.906568249974548 7.060009441434234 0.0
9.913122631074113 3.64016132281653 0.0
9.922462129543863 6.354535290629151 0.0
9.917693659967533 4.354211663134567 0.0
9.909873057440208 5.637584487339942 0.0
9.914183254994697 4.950672966925282 0.0
9.913885043715895 7.666887930262611 0.0
9.91009668007573 2.351889069770817 0.0
9.905135696074536 8.138152454502785 0.0
9.913397459621809 1.849999999997262 0.0
7.099302372137626 0.297750452375005 0.0
7.095143729410097 9.700359990366296 0.0
4.942912558701401 5.095838627899509 0.0
4.315009232304429 5.165022115481685 0.0
4.946182472483878 4.906763777264103 0.0
4.317967462990024 4.825955043772673 0.0
9.916390871492647 8.64999999999792 0.0
9.921504649680616 1.368376469890358 0.0
8.292538149791614 0.206877570318844 0.0
8.292538149793597 9.793122429681448 0.0
5.884594439766573 9.587645267048616 0.0
5.794826292691579 0.3794853783929359 0.0
9.913397459621425 9.049999999998557 0.0
9.908526577714177 0.9568239351922434 0.0
3.456851160380649 5.315740054130451 0.0
3.457889657868442 4.707121019609468 0.0
8.945214200703926 0.1503383337970344 0.0
8.950161364448409 9.8413906539257 0.0
9.913862335499305 4.055887885208452 0.0
9.916697353372683 4.650158482607802 0.0
9.919076340414442 6.049999999994006 0.0
9.906994308667635 5.25749687748192 0.0
9.917490342358025 6.655979201891897 0.0
9.915757520293784 7.343848891656911 0.0
9.910049507471042 3.363474386285078 0.0
9.914471988502868 2.647400064832979 0.0
9.91474124160965 9.337490423485129 0.0
9.916971008170838 0.6499999999994355 0.0
4.307157269264427 9.509674045029644 0.0
4.331527375865619 0.4401616696422582 0.0
9.45434939180249 9.878397030523757 0.0
9.457696120412969 0.1270877537061785 0.0
2.555070293622606 5.422044496190925 0.0
2.566232917480916 4.608001224030952 0.0
3.026511860837692 9.332320638257093 0.0
2.945561971800619 0.5895662714727601 0.0
7.7395404387124 0.2511088946967771 0.0
7.736379255744154 9.745848826372828 0.0
4.687135269408529 5.122111433928926 0.0
4.688420821504113 4.871895064967488 0.0
9.910554884115975 0.3448356354522978 0.0
9.911230082250466 9.65764729394159 0.0
9.921953841410854 6.851023993342036 0.0
9.912065178606017 5.448170483544033 0.0
9.911660025326261 3.861846960030188 0.0
9.914847467973438 3.14501593945607 0.0
9.913397459621425 5.849999999993703 0.0
9.913397459621425 7.849999999996735 0.0
9.906916878988277 2.15455769998631 0.0
9.913397459621425 8.349999999997479 0.0
9.909472363117661 1.640528221515488 0.0
9.913987325695956 1.152857110636247 0.0
9.913397459621425 8.849999999998241 0.0
0.9100099990995943 2.614215977520411 0.0
0.8395284981715456 7.451196254860987 0.0
9.723278867451556 9.898135916635193 0.0
9.723316350887044 0.09841820909386662 0.0
1.385819164827588 4.454539963646463 0.0
1.338343629665047 5.523111536005823 0.0
1.377179700550677 0.6809168304959698 0.0
1.418060461092743 9.285896715136046 0.0
9.91268220142518 0.1457914080939694 0.0
9.906737126737994 9.845745933882352 0.0
0.7108351382691361 6.537941170074089 0.0
1.527735020267026 6.915620208855231 0.0
1.630993885659103 7.838271825205868 0.0
2.232760943566823 7.370850737296832 0.0
2.243414218068206 6.688299277952821 0.0
2.779655053105118 7.021588754814074 0.0
2.80227799359795 7.632420170547022 0.0
3.282022065908813 7.305859666021318 0.0
3.327597298795347 7.857554136825748 0.0
3.743210251018715 7.549183328204379 0.0
3.716353232200752 7.062036086888612 0.0
4.111978858674101 7.27497101169417 0.0
4.104192177581432 6.879858986267289 0.0
4.436230765617037 7.045693351607117 0.0
4.430360014817357 6.703971783962796 0.0
4.732390145036301 6.849841042423394 0.0
5.056161327708878 5.095276573498806 0.0
5.111586796021131 4.999081142133581 0.0
5.169267363407189 5.09444870412406 0.0
5.223795108752053 4.996986220359468 0.0
5.281480803887719 5.092780870372803 0.0
5.335670761900611 4.994887492556936 0.0
5.393485214772442 5.090486192743301 0.0
5.447323082877892 4.992601527033996 0.0
5.505243219343024 5.087953380710069 0.0
5.558739102026105 4.990287787962959 0.0
5.616491581184779 5.085335255235766 0.0
5.669852346908056 4.9879269227514 0.0
5.727502713908907 5.082679981817038 0.0
5.780766004135139 4.988313988715834 0.0
5.838244881129535 5.080480568766611 0.0
5.891357695677371 4.986433849408193 0.0
5.948696036767613 5.077969900389505 0.0
6.001601341641615 4.981313698556656 0.0
6.058851024265095 5.074871552128682 0.0
6.111614020704875 4.978360695880202 0.0
6.168801161530775 5.072044953270978 0.0
6.221368818778567 4.975825765213497 0.0
6.278268309066882 5.066182320461055 0.0
6.330814273567539 4.972837984645718 0.0
6.387565032421376 5.062889771971895 0.0
6.437476667631405 4.971693683589553 0.0
[...]
POINT_DATA 2538
VECTORS disp float
1.1426344676200285e-11 1.3964755404684787e-11 0.0
6.535350961571298e-13 -2.5519559764422444e-12 0.0
0.0010000000003081034 1.5991673329095818e-12 0.0
0.0009999999791882198 -3.548103976195092e-11 0.0
0.0005067884492860402 0.0002474362891381494 0.0
0.0007534329147099452 2.3976763227618284e-5 0.0
0.0006215671845103634 -6.086584706713476e-5 0.0
-2.4319740574338937e-12 -3.3659608893431277e-12 0.0
8.131143712171994e-13 8.957030934510318e-13 0.0
1.821971932547442e-13 -1.2707693353433134e-12 0.0
2.0841749402961658e-13 -9.710658576684001e-13 0.0
9.981303226559232e-14 -1.0174565372346398e-12 0.0
1.817730084605879e-13 -1.0640679491881563e-12 0.0
1.3111321523381738e-13 -1.1634727821786046e-12 0.0
1.1865217161327846e-13 -1.377974507218683e-12 0.0
1.255091553295269e-13 -1.5509898752309704e-12 0.0
1.6978437294331462e-13 -1.6554302739501383e-12 0.0
1.7007095872640162e-13 -1.7024887784719475e-12 0.0
1.7571660614734195e-13 -1.7258252558256992e-12 0.0
1.773673868963968e-13 -1.7358782394980336e-12 0.0
1.8398291291660058e-13 -1.733824331856571e-12 0.0
1.8367447936764563e-13 -1.7570656176355438e-12 0.0
1.874414859397213e-13 -1.7764464241690394e-12 0.0
1.8380965147333464e-13 -1.830700638512519e-12 0.0
1.6921320048071517e-13 -1.9069918986186653e-12 0.0
1.6362079256281898e-13 -1.971516356107754e-12 0.0
1.6034784903459772e-13 -2.040916692426509e-12 0.0
1.7020930671685613e-13 -2.0879160903030336e-12 0.0
1.8957669581483736e-13 -2.1267729753783692e-12 0.0
1.838219792702568e-13 -2.1867352494931525e-12 0.0
2.494736882830765e-13 -2.2412588627208853e-12 0.0
1.0261419887030133e-13 -2.1381947564630846e-12 0.0
1.1128230525075338e-5 -2.6737360227551527e-6 0.0
2.1080868971776275e-5 -5.239507577409876e-6 0.0
3.1012771800168494e-5 -7.79499104873872e-6 0.0
4.0680769718460014e-5 -1.0416543427567987e-5 0.0
5.008626049268509e-5 -1.3065623451099085e-5 0.0
5.905104968380351e-5 -1.5743848006285965e-5 0.0
6.804241778988576e-5 -1.840717838383068e-5 0.0
7.677342178151743e-5 -2.11801692628708e-5 0.0
8.542587731817207e-5 -2.4005924183366925e-5 0.0
9.420011013154249e-5 -2.6823697674994905e-5 0.0
0.00010305615350461613 -2.970177057913311e-5 0.0
0.00011233144983235922 -3.2764567299565776e-5 0.0
0.00012146836915387535 -3.586334938484843e-5 0.0
0.0001309977688650695 -3.891868880048053e-5 0.0
0.00014209513359497394 -4.260746813621791e-5 0.0
0.00015244762706618812 -4.638948402977343e-5 0.0
0.00016297966341711465 -4.994594580467686e-5 0.0
0.00017339579231733673 -5.3004141933207066e-5 0.0
0.0001837487541653392 -5.584474833353342e-5 0.0
0.000193969775001502 -5.827912337513886e-5 0.0
0.00020427786642758045 -6.0397646922572096e-5 0.0
0.00021393815258912387 -6.235653244310867e-5 0.0
0.0002240450722922613 -6.398195785916587e-5 0.0
0.00023329537600294228 -6.580780898875278e-5 0.0
0.00024284818816625232 -6.74044752646502e-5 0.0
0.0002518119661223752 -6.91404612631803e-5 0.0
0.0002606810704421999 -7.083842381296351e-5 0.0
0.00026937509619374256 -7.2498446836975e-5 0.0
0.0002781649266814173 -7.41100243740547e-5 0.0
0.0002866363469996951 -7.58550616626024e-5 0.0
0.0002952954597214068 -7.763756275620317e-5 0.0
0.00030391960514291596 -7.942107496716777e-5 0.0
0.0003125474689144987 -8.135126889569143e-5 0.0
0.0003212264148831246 -8.331915666198663e-5 0.0
0.00032969561380237044 -8.579260236610327e-5 0.0
0.00033763788747596756 -8.865137251895483e-5 0.0
0.0003442378543161949 -9.182307895198185e-5 0.0
0.0003529068091414998 -9.339783268136302e-5 0.0
0.0003604433663279224 -9.452990133645532e-5 0.0
0.0003698343823402012 -9.529852946613883e-5 0.0
0.0003800173992307762 -9.584893958624973e-5 0.0
0.000391146762719922 -9.634081965556346e-5 0.0
0.00040393074628327757 -9.626122687935887e-5 0.0
0.00041682795835168933 -9.625392556874662e-5 0.0
0.00042896607336465796 -9.626102004739207e-5 0.0
0.0004407414022065142 -9.607005002718652e-5 0.0
0.00045267089095968294 -9.588144371317239e-5 0.0
0.0004650943031956665 -9.538315851562789e-5 0.0
0.0004779808781978257 -9.53670159732688e-5 0.0
0.0004910566967699066 -9.54463378563458e-5 0.0
0.0005030846910434725 -9.582503013495334e-5 0.0
0.0005134452141046625 -9.612395865369563e-5 0.0
0.0005224987218274557 -9.670685080479388e-5 0.0
0.0005304054545191182 -9.744259605391668e-5 0.0
0.0005367293223948012 -9.82236822110484e-5 0.0
0.000543524531716855 -9.885320922210208e-5 0.0
0.0005503824084355307 -9.946942395679534e-5 0.0
0.0005580411089374877 -0.00010022967573346768 0.0
0.0005658657209958158 -0.00010116575437170745 0.0
0.0005735671845944586 -0.00010208168452084513 0.0
0.0005813810038766804 -0.00010303490170739048 0.0
0.0005897160397711589 -0.00010402537178333634 0.0
0.0005987478897489591 -0.00010491392385846688 0.0
0.0006072442958071651 -0.00010562942897078469 0.0
0.0006161260284268586 -0.0001062520223130305 0.0
0.0006251989777116409 -0.0001068341688300227 0.0
0.0006337236264248728 -0.00010739404834186489 0.0
0.0006420701378917093 -0.00010799027949453711 0.0
0.0006506954044690401 -0.00010844573313004559 0.0
0.0006592262265693335 -0.00010897594532051981 0.0
0.0006674288797717787 -0.0001096021743011535 0.0
0.0006759772551282273 -0.0001104246344451746 0.0
0.0006843759399723405 -0.0001114917052029518 0.0
0.0006927360609719299 -0.00011258092246932515 0.0
0.0007012845533381853 -0.0001135679748882613 0.0
0.0007092827957164988 -0.00011457866847122736 0.0
0.0007180232789993589 -0.00011538729363837747 0.0
0.0007272136863647812 -0.0001162744196219035 0.0
0.000737230581241024 -0.00011684419353690141 0.0
0.0007476191270809816 -0.00011739114565079735 0.0
0.0007581504909394784 -0.00011763768034491479 0.0
0.000767947088549355 -0.000116865736305641 0.0
0.0007769197182024032 -0.00011517112953935067 0.0
0.0007863766023520807 -0.00011241906511973127 0.0
0.0007971183592612203 -0.00010953544177394639 0.0
0.0008066676849899964 -0.00010845848228865667 0.0
0.0008163174959337125 -0.00010737196433411889 0.0
0.0008256805505875578 -0.00010618752525181133 0.0
0.000834624302511239 -0.00010512701242220485 0.0
0.0008441305762681103 -0.0001039163773077956 0.0
0.000854579819326996 -0.00010200197495944274 0.0
0.0008645660751394889 -9.912498265070795e-5 0.0
0.0008748232267712201 -9.54192251808193e-5 0.0
0.0008850719201313863 -9.088963832182045e-5 0.0
0.0008969890972336538 -8.510024257690978e-5 0.0
0.0009097864209677072 -7.691537417634412e-5 0.0
0.0009224897701704591 -6.53379156787339e-5 0.0
0.0009400655870783041 -5.098496945489867e-5 0.0
0.0009610839339346419 -3.2257816580879764e-5 0.0
0.0010000000016881165 2.3613877910360887e-12 0.0
0.0009999999975947732 -2.7002234009612856e-12 0.0
0.00099999999962989 1.01676153423996e-12 0.0
0.0009999999990700863 4.576871614996282e-13 0.0
0.0009999999994683313 8.157200420852641e-13 0.0
0.0009999999993709045 8.827853379447995e-13 0.0
0.0009999999994328812 7.790538517946659e-13 0.0
0.000999999999441408 7.510568762687186e-13 0.0
0.000999999999437492 7.800801662286256e-13 0.0
0.0009999999994692126 8.185197537006735e-13 0.0
0.0009999999994783682 9.077118104218626e-13 0.0
0.0009999999995129816 9.751734199704017e-13 0.0
0.0009999999994936262 1.0313721288852503e-12 0.0
0.000999999999493444 1.063215199294286e-12 0.0
0.0009999999994807726 1.0745213489704232e-12 0.0
0.0009999999994593641 1.0625404821735293e-12 0.0
0.0009999999994245834 1.038060046415506e-12 0.0
0.000999999999452766 1.0215957979189166e-12 0.0
0.0009999999994244905 1.0387292909550782e-12 0.0
0.0009999999995113375 9.54428442621202e-13 0.0
0.000999999999529403 9.084174906032065e-13 0.0
0.000999999999535318 8.402438583827959e-13 0.0
0.000999999999662322 7.97502943004201e-13 0.0
0.0009999999998685336 1.0348433571064566e-12 0.0
0.0009999999997808455 7.925270564128344e-13 0.0
0.0009321335358039201 1.5841008389817598e-5 0.0
0.0008751138095970953 2.2716365277627618e-5 0.0
0.0008257054513690067 2.452115247837495e-5 0.0
0.0007841138473977434 2.4896252369263122e-5 0.0
0.0007518065894355218 -1.1491927339051232e-5 0.0
0.0007500249324118196 -3.7111141091531705e-5 0.0
0.0007490183895787481 -6.234194116307845e-5 0.0
0.000745520102681728 -8.025700776053656e-5 0.0
0.0007404656732001504 -9.337965850236046e-5 0.0
0.0007331974902691248 -0.0001028078423481148 0.0
0.0007245534146453068 -0.00010829623758888996 0.0
0.0007137900671265055 -0.00011070899375834342 0.0
0.0007029618809639972 -0.00011282477459540879 0.0
0.0006908372365071005 -0.00011300655966787897 0.0
0.00067441234239962 -0.00010916005280660598 0.0
0.0006543524951906489 -9.687298068165374e-5 0.0
0.0006034769688132543 -3.4759937558241896e-5 0.0
0.0005902431790878932 -1.8215393524705177e-5 0.0
0.0005788169900226072 -5.3155629587970835e-6 0.0
0.0005683011306009005 6.644200308382498e-6 0.0
0.0005583279859793465 1.80839577478582e-5 0.0
0.0005496433659994559 3.0578130272299815e-5 0.0
0.0005413440024164479 4.5102203930533304e-5 0.0
0.0005336119058924729 6.069460196780242e-5 0.0
0.0005272097154583759 8.233075547463141e-5 0.0
0.0005197977535369272 0.00010585069725103287 0.0
0.0005155314705079143 0.00013478519977171233 0.0
0.0005061936476376769 0.00018056604289052352 0.0
0.0004391859859713835 0.0002502517180338314 0.0
0.00036323791673008445 0.00024974047233806463 0.0
0.0002990531035814227 0.00023477019984799495 0.0
0.00023015408188167334 0.00018375289293015088 0.0
0.00028026764441162086 -7.104185902726851e-5 0.0
0.0006637422260523204 -0.00010341884171790729 0.0
0.0003385194740311672 -8.35345277425236e-5 0.0
0.0006029233745666312 -9.983926589406758e-5 0.0
0.00041122445724395723 -8.803178850652187e-5 0.0
0.0005457585912914979 -9.515148694344374e-5 0.0
0.00048439522066368116 -8.895119152391844e-5 0.0
0.0007146888598465377 -0.00010825131893755474 0.0
0.0002277825247529511 -6.038126320526374e-5 0.0
0.0007626060756745817 -0.00010755140278182746 0.0
0.00017668102941803624 -4.76383301700375e-5 0.0
2.4002174965473802e-5 -3.9110967558082845e-6 0.0
0.0009670895072926402 5.522731557783871e-7 0.0
0.0006308434669196882 -7.02341776861409e-5 0.0
0.0006968786805527238 -0.0001057815619038875 0.0
0.0005786874478797632 -4.033177810367533e-5 0.0
0.000537587352664639 1.5964457422373218e-5 0.0
0.0008120493066260076 -9.894662030277522e-5 0.0
0.0001263947316576303 -3.340612217181948e-5 0.0
1.704536123648538e-5 -2.7695299397115684e-6 0.0
0.0009767932576796297 -2.622606347602746e-7 0.0
0.0009544591628337868 2.700836483701375e-7 0.0
2.914803014757379e-5 -4.067435251833325e-6 0.0
0.0008504682061628422 -9.028588733202785e-5 0.0
8.884137843455871e-5 -2.2706941564242023e-5 0.0
0.000730149193724764 -9.268975272168855e-5 0.0
0.0005020185675013197 5.457186636917182e-5 0.0
1.245992730599443e-5 -2.2674409312665736e-6 0.0
0.0009812444727619672 -4.489990281287808e-7 0.0
0.0003756999157885587 -8.764850081682398e-5 0.0
0.0004468749637526092 -8.831914369965769e-5 0.0
0.0005768889607738681 -9.744966638586883e-5 0.0
0.0005181281009218235 -9.153540208361668e-5 0.0
0.0006296449966410616 -0.00010184132187468244 0.0
0.0006873543827294051 -0.00010573555192800454 0.0
0.000317162653750336 -7.824134103762847e-5 0.0
0.00025517906705065476 -6.655866353833784e-5 0.0
0.0008812694187745766 -7.753846639132255e-5 0.0
6.236679307548044e-5 -1.5412914305574333e-5 0.0
0.0009505208646693388 -7.04004420840235e-7 0.0
3.451355409439987e-5 -2.413643819857751e-6 0.0
0.000983910832067822 -1.136554360411908e-6 0.0
1.1120698287846584e-5 -2.2394254200185907e-6 0.0
0.0007513415036080768 -6.815723393795361e-5 0.0
0.00048272022297119935 9.493518389203124e-5 0.0
0.0009409103027315461 -1.6553018529945814e-6 0.0
5.158884249487148e-5 2.8516469653336837e-8 0.0
2.0533880443512386e-5 -3.3365754071770928e-6 0.0
0.0009720250085515852 2.214951515783542e-7 0.0
0.000669536326274997 -0.00010218699737794334 0.0
0.0005590844126913174 -8.05031079588264e-6 0.0
3.4188361012133e-5 -7.823563191075572e-6 0.0
0.0009245473750640468 -4.9814766604878604e-5 0.0
0.0006462416436178745 -0.00010318969535259657 0.0
0.0005329640768010263 -9.429308954029007e-5 0.0
0.0003572108849822737 -8.660247404393019e-5 0.0
0.0002984497616618026 -7.511921593576979e-5 0.0
0.0005614374115720161 -9.604047171468989e-5 0.0
0.0007319532443344171 -0.00010875535224610559 0.0
0.0002082604476048923 -5.553912437493257e-5 0.0
0.0007838663148169947 -0.00010481167920420524 0.0
0.00015420457600878477 -4.090671564623481e-5 0.0
0.00010630025578904844 -2.7592518277324563e-5 0.0
0.0008307285419608445 -9.553558950765494e-5 0.0
0.0003247271939410071 0.00014580999493617641 0.0
0.0008437882332333067 -9.47106642070136e-7 0.0
0.0009825333884895056 -3.374903054828217e-6 0.0
9.141581071459159e-6 -1.830001077567421e-6 0.0
0.0004673089751009949 0.00015352523343770954 0.0
0.0007640641338722756 -2.4800372325891008e-5 0.0
6.930943491283414e-5 1.1047280902467119e-5 0.0
0.0009505936079540955 1.1294067387827978e-6 0.0
1.4728274087695416e-5 -3.0963129670396352e-6 0.0
0.0009598612442510291 -2.0446899170654214e-5 0.0
0.0008044267192540626 -1.594819220159837e-6 0.0
0.000811837730397664 -1.975547784867069e-5 0.0
0.0008551795656078284 -1.1332847199777674e-5 0.0
0.0008205383701242081 -2.403669637844681e-5 0.0
0.0007866668279905354 -3.7626271864031635e-5 0.0
0.0007881252205877816 -3.7278535421534296e-5 0.0
0.0008206579593127432 -2.350889235521556e-5 0.0
0.0007879826589720616 -3.1890944762188046e-5 0.0
0.0008222957768944833 -1.9864851955456976e-5 0.0
0.0007902285959420982 -2.48901845154935e-5 0.0
0.0007592801974598454 -3.733702442942615e-5 0.0
0.0007604759324393955 -2.8097468225103155e-5 0.0
0.0007340050727782255 -3.842162139605014e-5 0.0
0.0007345202237883909 -2.948965840126127e-5 0.0
0.0007115087962380584 -3.7576783898249624e-5 0.0
0.000712282087407687 -2.7945304938496523e-5 0.0
0.0006211724550805304 -5.235633121709276e-5 0.0
0.0006102070929259032 -5.394344096685599e-5 0.0
0.0006102747585914573 -4.618128594931539e-5 0.0
0.0005995226646695885 -5.0201687136719834e-5 0.0
0.00060014974843884 -4.275050160885976e-5 0.0
0.000589944427682799 -4.618972168870524e-5 0.0
0.0005909953115906101 -3.9064476114860086e-5 0.0
0.0005808992437906712 -4.251144113499794e-5 0.0
0.0005830305126858261 -3.642561010201016e-5 0.0
0.0005724211603618321 -4.046908778395656e-5 0.0
0.0005757313180912135 -3.5117286987650905e-5 0.0
0.00056530656650693 -3.824638588653995e-5 0.0
0.000569246431145934 -3.35127081945913e-5 0.0
0.000559226496316089 -3.5779500995919044e-5 0.0
0.0005634218243853982 -3.1397165043675596e-5 0.0
0.0005534269560161112 -3.3452107556018045e-5 0.0
0.0005582107713069115 -2.9713280713699334e-5 0.0
0.0005477630323471963 -3.201589468717064e-5 0.0
0.000553255312385891 -2.849484267531378e-5 0.0
0.0005429495522684436 -3.0187293608556248e-5 0.0
0.0005487417940207369 -2.6963990595177774e-5 0.0
0.0005385046990262596 -2.8539591058186507e-5 0.0
0.0005442560870031083 -2.5693450842835205e-5 0.0
0.000534263924016672 -2.7231409571021786e-5 0.0
0.0005402304331471238 -2.473869942706264e-5 0.0
0.0005305609361535271 -2.61736064114097e-5 0.0
0.0005364145390815658 -2.3790846580155297e-5 0.0
0.000526545223443746 -2.542613162115081e-5 0.0
0.000532680702262874 -2.3128016491934618e-5 0.0
0.0005207025102380581 -2.520710202948395e-5 0.0
0.0005296249016416404 -2.2663913190260433e-5 0.0
0.0005191954960540974 -2.400214072302916e-5 0.0
0.0005263948679505555 -2.2203010186294856e-5 0.0
0.0005162865980875223 -2.3571394595447333e-5 0.0
0.0005234225544901739 -2.2049996702856657e-5 0.0
0.0005138280448485285 -2.334995115518708e-5 0.0
0.0005205397105366738 -2.2071225631560327e-5 0.0
0.0005110880757530956 -2.3298078207033192e-5 0.0
0.000564840760961641 -4.5737551619993037e-5 0.0
0.0005178206307520942 -2.2275607215610854e-5 0.0
0.0005362025321223892 -3.3692888979842405e-5 0.0
0.0005094709822498396 -2.6080727290058785e-5 0.0
0.0005078427256947275 -2.3613020533434523e-5 0.0
0.0005151808371509334 -2.2730082653650953e-5 0.0
0.0005046833056632146 -2.411006123578427e-5 0.0
0.0004972639817429773 -2.493419423175994e-5 0.0
0.0004937117875364428 -2.5453064864746507e-5 0.0
0.0005122080300299305 -2.3413348838642598e-5 0.0
0.000522502473607504 -2.200032202927791e-5 0.0
0.0005357811788689839 -2.10135022271136e-5 0.0
0.0005197784200554202 -2.2885974092502032e-5 0.0
0.0005304735011719441 -2.1334545346285744e-5 0.0
0.000527499585228017 -2.2529393978678597e-5 0.0
0.00048608762065254825 -2.6244174894209454e-5 0.0
0.00048288348131962546 -2.6704564958653326e-5 0.0
0.0005383025954459674 -2.0870690760791914e-5 0.0
0.00047425749824487164 -2.7550782763906623e-5 0.0
0.00047151526051365317 -2.794747526634159e-5 0.0
0.0005356718849360844 -2.226510136199147e-5 0.0
0.0005458562580126372 -2.0661551860071927e-5 0.0
0.0004618212887610468 -2.8840081003697316e-5 0.0
0.0004587734571785369 -2.9201992769803188e-5 0.0
0.000543604056506255 -2.2230307810856867e-5 0.0
0.0005539176905979395 -2.0516355571785203e-5 0.0
0.00044892566496823946 -3.0011401128722514e-5 0.0
0.00044559252944854823 -3.0549218433460855e-5 0.0
0.0005517048989164488 -2.2367105818131673e-5 0.0
0.0005622507145424967 -2.0490088503233657e-5 0.0
0.0004356992009863669 -3.127491494918768e-5 0.0
0.0004315126141325864 -3.186159626138082e-5 0.0
0.0005602044572885786 -2.2548426758653184e-5 0.0
0.0005707749447500814 -2.053383646480565e-5 0.0
0.00042106736229650916 -3.25396682356569e-5 0.0
0.0004171593506608019 -3.3126586626372134e-5 0.0
0.00040582175643149096 -3.378637952442625e-5 0.0
0.00040987327544171864 -3.333984144735114e-5 0.0
0.0005488960082014611 -2.438927032135427e-5 0.0
0.0005686947150170837 -2.2865389417492527e-5 0.0
0.0005794859369880925 -2.0673120139082076e-5 0.0
0.0005818577049617218 -1.8279732179363714e-5 0.0
0.0005531315687149655 -2.4172920403629893e-5 0.0
0.000590968705987537 -1.8282757172834592e-5 0.0
0.0005935493056999629 -1.587610073801579e-5 0.0
0.0006030313964057046 -1.571179349057498e-5 0.0
0.00040293392362816534 -3.444983460829018e-5 0.0
0.00039145949608573297 -3.4957628623118956e-5 0.0
0.00041411676421154996 -3.397762304662265e-5 0.0
0.000577114115392798 -2.3331897520818327e-5 0.0
0.00038884341223832696 -3.567788643367196e-5 0.0
0.00037752232536263075 -3.598002167756308e-5 0.0
0.0005727307674885436 -2.9177416583800945e-5 0.0
0.0003751361655951348 -3.6699668067929524e-5 0.0
0.0003638324316938338 -3.674478687046321e-5 0.0
0.0003616391919794965 -3.754812691123633e-5 0.0
0.0003504704551801625 -3.726268489251384e-5 0.0
0.0003522680038075924 -3.6681056126301825e-5 0.0
0.0003376543039540398 -3.699734748215091e-5 0.0
0.0003396487618807231 -3.644540319442732e-5 0.0
0.00034690114507525004 -3.817281760504145e-5 0.0
0.00032366104416386255 -3.648469989837603e-5 0.0
0.0003254927112070833 -3.607201957788271e-5 0.0
0.00035956483085438246 -3.862201583595231e-5 0.0
0.0003469506182245491 -3.935335594908524e-5 0.0
0.0003097479159693408 -3.580917379476887e-5 0.0
0.00031086554515874726 -3.55147504731101e-5 0.0
0.000605925256116606 -1.342910899870855e-5 0.0
0.0006158731057665768 -1.316964520606651e-5 0.0
0.0003575600450914027 -3.993617870526337e-5 0.0
0.0003452813956933169 -4.0641594511668416e-5 0.0
0.0006188951608754077 -1.0979539405480598e-5 0.0
0.0006294287271801707 -1.0671756333633062e-5 0.0
0.0006258764361743874 -1.3307056210307743e-5 0.0
0.0006398006288322826 -1.063031617188854e-5 0.0
0.0006365605839165249 -1.3619053948605265e-5 0.0
0.0006509123628204848 -1.0695197250385173e-5 0.0
0.0006484341912799457 -1.3878222115046013e-5 0.0
0.0006637284499614925 -1.0575790289234911e-5 0.0
0.0006600923445819456 -1.4060697845277435e-5 0.0
0.0006660216918398235 -7.884873006579458e-6 0.0
0.0006759734540736234 -1.0742740549898129e-5 0.0
0.0006716738457184779 -1.4567785192380165e-5 0.0
0.0003558036158026176 -4.1407576013519826e-5 0.0
0.00029399167229333554 -3.496664467721217e-5 0.0
0.0002946426257738322 -3.46875276159826e-5 0.0
0.0006569371809288918 -1.8368770918088895e-5 0.0
0.00066813035777245 -1.9140885094722208e-5 0.0
0.0006831165090576093 -1.5159568033631977e-5 0.0
0.0006544252220875379 -2.3268034468147617e-5 0.0
0.0003439505465049542 -4.210583782641589e-5 0.0
0.0006796421751305608 -2.011871228952193e-5 0.0
0.0006947879248610487 -1.5833641708504913e-5 0.0
0.0003541111491651357 -4.306866420940066e-5 0.0
0.0003426067748443581 -4.379424955123094e-5 0.0