# vtk DataFile Version 2.0
phase field modeling fracture
ASCII
DATASET UNSTRUCTURED_GRID
POINTS 2538 float
0.0 0.0 0.0
10.0 0.0 0.0
0.0 10.0 0.0
10.0 10.0 0.0
0.0 4.9995 0.0
0.0 5.0005 0.0
5.0 5.0 0.0
0.9416964895726688 0.0 0.0
1.803581725054446 0.0 0.0
2.592419885431098 0.0 0.0
3.314401822861676 0.0 0.0
3.975193910351406 0.0 0.0
4.579982132660152 0.0 0.0
5.133512780936812 0.0 0.0
5.640130319506143 0.0 0.0
6.103810708661955 0.0 0.0
6.528192895506818 0.0 0.0
6.916607540127679 0.0 0.0
7.272102969376355 0.0 0.0
7.597469242948583 0.0 0.0
7.895259826292669 0.0 0.0
8.167811885738017 0.0 0.0
8.417264413845215 0.0 0.0
8.645575169389538 0.0 0.0
8.854535961159101 0.0 0.0
9.045786767735546 0.0 0.0
9.220828555767493 0.0 0.0
9.38103509633881 0.0 0.0
9.527663687265145 0.0 0.0
9.661865124984566 0.0 0.0
9.784692609918062 0.0 0.0
9.897110148790482 0.0 0.0
10.0 0.09999999999992584 0.0
10.0 0.199999999999856 0.0
10.0 0.2999999999997771 0.0
10.0 0.3999999999996677 0.0
10.0 0.4999999999995511 0.0
10.0 0.5999999999994683 0.0
10.0 0.6999999999993983 0.0
10.0 0.7999999999993286 0.0
10.0 0.8999999999992587 0.0
10.0 0.9999999999991888 0.0
10.0 1.099999999999119 0.0
10.0 1.199999999999033 0.0
10.0 1.299999999998852 0.0
10.0 1.399999999998576 0.0
10.0 1.499999999998284 0.0
10.0 1.599999999997992 0.0
10.0 1.6999999999977 0.0
10.0 1.799999999997408 0.0
10.0 1.899999999997116 0.0
10.0 1.999999999996825 0.0
10.0 2.099999999996533 0.0
10.0 2.199999999996241 0.0
10.0 2.299999999995949 0.0
10.0 2.399999999995657 0.0
10.0 2.499999999995365 0.0
10.0 2.599999999995073 0.0
10.0 2.699999999994782 0.0
10.0 2.79999999999449 0.0
10.0 2.899999999994198 0.0
10.0 2.999999999993906 0.0
10.0 3.099999999993614 0.0
10.0 3.199999999993322 0.0
10.0 3.299999999993029 0.0
10.0 3.399999999992738 0.0
10.0 3.499999999992446 0.0
10.0 3.599999999992154 0.0
10.0 3.699999999991863 0.0
10.0 3.799999999991571 0.0
10.0 3.899999999991278 0.0
10.0 3.999999999991022 0.0
10.0 4.099999999991035 0.0
10.0 4.199999999991187 0.0
10.0 4.299999999991338 0.0
10.0 4.399999999991491 0.0
10.0 4.499999999991642 0.0
10.0 4.599999999991795 0.0
10.0 4.699999999991947 0.0
10.0 4.799999999992099 0.0
10.0 4.89999999999225 0.0
10.0 4.999999999992403 0.0
10.0 5.099999999992555 0.0
10.0 5.199999999992706 0.0
10.0 5.299999999992858 0.0
10.0 5.39999999999301 0.0
10.0 5.499999999993161 0.0
10.0 5.599999999993313 0.0
10.0 5.699999999993466 0.0
10.0 5.799999999993618 0.0
10.0 5.899999999993771 0.0
10.0 5.999999999993922 0.0
10.0 6.099999999994074 0.0
10.0 6.199999999994227 0.0
10.0 6.299999999994378 0.0
10.0 6.39999999999453 0.0
10.0 6.499999999994682 0.0
10.0 6.599999999994833 0.0
10.0 6.699999999994986 0.0
10.0 6.799999999995138 0.0
10.0 6.899999999995289 0.0
10.0 6.999999999995442 0.0
10.0 7.099999999995594 0.0
10.0 7.199999999995747 0.0
10.0 7.299999999995897 0.0
10.0 7.39999999999605 0.0
10.0 7.499999999996202 0.0
10.0 7.599999999996353 0.0
10.0 7.699999999996505 0.0
10.0 7.799999999996658 0.0
10.0 7.899999999996808 0.0
10.0 7.999999999996962 0.0
10.0 8.099999999997113 0.0
10.0 8.199999999997265 0.0
10.0 8.299999999997418 0.0
10.0 8.399999999997569 0.0
10.0 8.499999999997721 0.0
10.0 8.599999999997873 0.0
10.0 8.699999999998024 0.0
10.0 8.799999999998176 0.0
10.0 8.899999999998329 0.0
10.0 8.99999999999848 0.0
10.0 9.099999999998634 0.0
10.0 9.199999999998786 0.0
10.0 9.299999999998937 0.0
10.0 9.399999999999089 0.0
10.0 9.499999999999241 0.0
10.0 9.599999999999392 0.0
10.0 9.699999999999545 0.0
10.0 9.799999999999697 0.0
10.0 9.899999999999848 0.0
9.897110148790565 10.0 0.0
9.784692609918244 10.0 0.0
9.66186512498486 10.0 0.0
9.527663687265571 10.0 0.0
9.381035096339392 10.0 0.0
9.220828555768257 10.0 0.0
9.045786767736512 10.0 0.0
8.854535961160305 10.0 0.0
8.645575169391027 10.0 0.0
8.417264413847017 10.0 0.0
8.167811885740178 10.0 0.0
7.895259826295246 10.0 0.0
7.597469242951631 10.0 0.0
7.272102969379938 10.0 0.0
6.916607540131873 10.0 0.0
6.528192895511704 10.0 0.0
6.103810708667616 10.0 0.0
5.640130319512691 10.0 0.0
5.13351278094435 10.0 0.0
4.579982132668816 10.0 0.0
3.975193910361222 10.0 0.0
3.314401822869852 10.0 0.0
2.592419885437257 10.0 0.0
1.803581725058137 10.0 0.0
0.9416964895740705 10.0 0.0
0.0 9.00010000000243 0.0
0.0 8.000200000005481 0.0
0.0 7.000300000005135 0.0
0.0 6.000400000002569 0.0
0.901790731451151 5.000409820926855 0.0
1.657200899774397 5.000334279910023 0.0
2.289991063707192 5.000271000893629 0.0
2.820065163538221 5.000217993483646 0.0
3.264096435579811 5.000173590356442 0.0
3.636051481595835 5.00013639485184 0.0
3.947629914072366 5.000105237008593 0.0
4.208632181002628 5.0000791367819 0.0
4.427267949625672 5.000057273205037 0.0
4.610414277633563 5.000038958572237 0.0
4.763831845154243 5.000023616815485 0.0
4.892346298799659 5.00001076537012 0.0
4.892346298799748 4.99998923462988 0.0
4.763831845154455 4.999976383184515 0.0
4.610414277633943 4.999961041427763 0.0
4.427267949626277 4.999942726794963 0.0
4.208632181003523 4.9999208632181 0.0
3.94762991407365 4.999894762991407 0.0
3.636051481597624 4.99986360514816 0.0
3.264096435582253 4.999826409643559 0.0
2.820065163541503 4.999782006516354 0.0
2.289991063711534 4.999728999106371 0.0
1.657200899778495 4.999665720089978 0.0
0.9017907314530094 4.999590179073145 0.0
0.0 3.999600000002013 0.0
0.0 2.999700000005187 0.0
0.0 1.99980000000512 0.0
0.0 0.9999000000025537 0.0
9.897889398521345 2.93573355845387 0.0
9.906568249974548 7.060009441434234 0.0
9.913122631074113 3.64016132281653 0.0
9.922462129543863 6.354535290629151 0.0
9.917693659967533 4.354211663134567 0.0
9.909873057440208 5.637584487339942 0.0
9.914183254994697 4.950672966925282 0.0
9.913885043715895 7.666887930262611 0.0
9.91009668007573 2.351889069770817 0.0
9.905135696074536 8.138152454502785 0.0
9.913397459621809 1.849999999997262 0.0
7.099302372137626 0.297750452375005 0.0
7.095143729410097 9.700359990366296 0.0
4.942912558701401 5.095838627899509 0.0
4.315009232304429 5.165022115481685 0.0
4.946182472483878 4.906763777264103 0.0
4.317967462990024 4.825955043772673 0.0
9.916390871492647 8.64999999999792 0.0
9.921504649680616 1.368376469890358 0.0
8.292538149791614 0.206877570318844 0.0
8.292538149793597 9.793122429681448 0.0
5.884594439766573 9.587645267048616 0.0
5.794826292691579 0.3794853783929359 0.0
9.913397459621425 9.049999999998557 0.0
9.908526577714177 0.9568239351922434 0.0
3.456851160380649 5.315740054130451 0.0
3.457889657868442 4.707121019609468 0.0
8.945214200703926 0.1503383337970344 0.0
8.950161364448409 9.8413906539257 0.0
9.913862335499305 4.055887885208452 0.0
9.916697353372683 4.650158482607802 0.0
9.919076340414442 6.049999999994006 0.0
9.906994308667635 5.25749687748192 0.0
9.917490342358025 6.655979201891897 0.0
9.915757520293784 7.343848891656911 0.0
9.910049507471042 3.363474386285078 0.0
9.914471988502868 2.647400064832979 0.0
9.91474124160965 9.337490423485129 0.0
9.916971008170838 0.6499999999994355 0.0
4.307157269264427 9.509674045029644 0.0
4.331527375865619 0.4401616696422582 0.0
9.45434939180249 9.878397030523757 0.0
9.457696120412969 0.1270877537061785 0.0
2.555070293622606 5.422044496190925 0.0
2.566232917480916 4.608001224030952 0.0
3.026511860837692 9.332320638257093 0.0
2.945561971800619 0.5895662714727601 0.0
7.7395404387124 0.2511088946967771 0.0
7.736379255744154 9.745848826372828 0.0
4.687135269408529 5.122111433928926 0.0
4.688420821504113 4.871895064967488 0.0
9.910554884115975 0.3448356354522978 0.0
9.911230082250466 9.65764729394159 0.0
9.921953841410854 6.851023993342036 0.0
9.912065178606017 5.448170483544033 0.0
9.911660025326261 3.861846960030188 0.0
9.914847467973438 3.14501593945607 0.0
9.913397459621425 5.849999999993703 0.0
9.913397459621425 7.849999999996735 0.0
9.906916878988277 2.15455769998631 0.0
9.913397459621425 8.349999999997479 0.0
9.909472363117661 1.640528221515488 0.0
9.913987325695956 1.152857110636247 0.0
9.913397459621425 8.849999999998241 0.0
0.9100099990995943 2.614215977520411 0.0
0.8395284981715456 7.451196254860987 0.0
9.723278867451556 9.898135916635193 0.0
9.723316350887044 0.09841820909386662 0.0
1.385819164827588 4.454539963646463 0.0
1.338343629665047 5.523111536005823 0.0
1.377179700550677 0.6809168304959698 0.0
1.418060461092743 9.285896715136046 0.0
9.91268220142518 0.1457914080939694 0.0
9.906737126737994 9.845745933882352 0.0
0.7108351382691361 6.537941170074089 0.0
1.527735020267026 6.915620208855231 0.0
1.630993885659103 7.838271825205868 0.0
2.232760943566823 7.370850737296832 0.0
2.243414218068206 6.688299277952821 0.0
2.779655053105118 7.021588754814074 0.0
2.80227799359795 7.632420170547022 0.0
3.282022065908813 7.305859666021318 0.0
3.327597298795347 7.857554136825748 0.0
3.743210251018715 7.549183328204379 0.0
3.716353232200752 7.062036086888612 0.0
4.111978858674101 7.27497101169417 0.0
4.104192177581432 6.879858986267289 0.0
4.436230765617037 7.045693351607117 0.0
4.430360014817357 6.703971783962796 0.0
4.732390145036301 6.849841042423394 0.0
5.056161327708878 5.095276573498806 0.0
5.111586796021131 4.999081142133581 0.0
5.169267363407189 5.09444870412406 0.0
5.223795108752053 4.996986220359468 0.0
5.281480803887719 5.092780870372803 0.0
5.335670761900611 4.994887492556936 0.0
5.393485214772442 5.090486192743301 0.0
5.447323082877892 4.992601527033996 0.0
5.505243219343024 5.087953380710069 0.0
5.558739102026105 4.990287787962959 0.0
5.616491581184779 5.085335255235766 0.0
5.669852346908056 4.9879269227514 0.0
5.727502713908907 5.082679981817038 0.0
5.780766004135139 4.988313988715834 0.0
5.838244881129535 5.080480568766611 0.0
5.891357695677371 4.986433849408193 0.0
5.948696036767613 5.077969900389505 0.0
6.001601341641615 4.981313698556656 0.0
6.058851024265095 5.074871552128682 0.0
6.111614020704875 4.978360695880202 0.0
6.168801161530775 5.072044953270978 0.0
6.221368818778567 4.975825765213497 0.0
6.278268309066882 5.066182320461055 0.0
6.330814273567539 4.972837984645718 0.0
6.387565032421376 5.062889771971895 0.0
6.437476667631405 4.971693683589553 0.0
[...]
POINT_DATA 2538
VECTORS disp float
1.3989030336866665e-11 3.065830251799427e-11 0.0
2.304136757095325e-11 -5.918878959818302e-11 0.0
0.002799999995598995 1.245950561965291e-11 0.0
0.0027999999713272518 -7.601909612260971e-11 0.0
0.0010140686309405768 0.0004064933217692845 0.0
0.0020569694442452288 0.00011665369508322218 0.0
0.001400514729005623 5.303610186980042e-5 0.0
1.7274617692709105e-12 -1.1986449851579642e-12 0.0
4.891786034228186e-12 4.424096474289498e-12 0.0
3.9180739623468015e-12 1.566895419601427e-12 0.0
3.495540959175742e-12 1.4822445507701915e-12 0.0
2.8110119282274722e-12 9.010915980010789e-13 0.0
2.4946299172728024e-12 3.414062319417126e-13 0.0
2.1381043039513493e-12 -5.84449905092639e-14 0.0
1.889078699066051e-12 -6.229815858255362e-13 0.0
1.4904067157262114e-12 -1.2497967953127414e-12 0.0
1.71417391908168e-12 -1.9623104337759394e-12 0.0
1.6783529611811458e-12 -2.789306308264442e-12 0.0
1.8152236786434813e-12 -3.68157715717769e-12 0.0
2.0111857233094953e-12 -4.575388563377194e-12 0.0
2.0794184360237253e-12 -5.3058244878041895e-12 0.0
2.3825408453271345e-12 -6.2414368520032e-12 0.0
2.4416259824896326e-12 -6.8672645993307275e-12 0.0
2.64711020650104e-12 -7.72834458347208e-12 0.0
2.844881822744017e-12 -8.586008166360483e-12 0.0
2.9753652440988165e-12 -9.394336948372884e-12 0.0
3.2096811792816847e-12 -1.0398139009879268e-11 0.0
3.522570672068934e-12 -1.152994457427352e-11 0.0
3.99230584531251e-12 -1.3009517557227872e-11 0.0
4.053614829239149e-12 -1.456459979035595e-11 0.0
5.967250462453705e-12 -1.9055981639733582e-11 0.0
2.720484219852677e-12 -1.5772264379910015e-11 0.0
3.768418362046383e-5 -4.04526412456833e-5 0.0
6.583664112818484e-5 -6.860452102963642e-5 0.0
9.292410066474403e-5 -9.302803967256382e-5 0.0
0.00011849693819675252 -0.00011508101417305993 0.0
0.00014298073169954543 -0.0001355388124720146 0.0
0.00016687098643801616 -0.00015504690141761223 0.0
0.0001905878733995873 -0.00017359739171952343 0.0
0.0002139008740182056 -0.00019139502753582282 0.0
0.0002370534712380388 -0.00020862839424807753 0.0
0.00026013365308757394 -0.00022526124137747398 0.0
0.0002831393377508285 -0.00024147225222793643 0.0
0.00030629702662962225 -0.00025722727725455434 0.0
0.0003294419727496342 -0.0002725300915929911 0.0
0.00035267755981900585 -0.0002875242851288842 0.0
0.0003761545870480721 -0.0003021235326324083 0.0
0.0003996426340954997 -0.0003163313246730837 0.0
0.0004233229103729713 -0.00033025083934395093 0.0
0.00044720846968673616 -0.00034377625859878557 0.0
0.0004712657709442265 -0.00035700684874212236 0.0
0.0004955195006521894 -0.0003699354112468157 0.0
0.000519994581659088 -0.000382556833047814 0.0
0.0005446549252290063 -0.00039486703262234544 0.0
0.0005696567659244818 -0.000406909345324161 0.0
0.0005947395292740731 -0.00041863150975845944 0.0
0.0006202254515847857 -0.00043007356295863517 0.0
0.0006457699654900071 -0.00044118769879163995 0.0
0.0006716222923254264 -0.00045203429857818326 0.0
0.0006976623348298405 -0.0004625391745058557 0.0
0.0007240554803050098 -0.00047278272523863254 0.0
0.0007505004265177751 -0.00048273144981657014 0.0
0.0007773246711278397 -0.0004924035441380814 0.0
0.0008043347178516609 -0.0005017438648256458 0.0
0.0008316235354648148 -0.0005108319737431025 0.0
0.0008590794763413273 -0.0005196116631297579 0.0
0.0008868556862926288 -0.0005281376609053998 0.0
0.000914677122916055 -0.0005363146468431005 0.0
0.0009428140124504984 -0.0005441853483516277 0.0
0.0009710273156173433 -0.0005516209218899131 0.0
0.000999409950739122 -0.0005586385273953277 0.0
0.001027981185618981 -0.0005653844964751067 0.0
0.00105664184568658 -0.000571668031221642 0.0
0.0010856039185942637 -0.000577646405675527 0.0
0.0011147798804090805 -0.0005832204831931908 0.0
0.00114410827966665 -0.0005885137605118185 0.0
0.0011736725540425848 -0.0005933631966192209 0.0
0.0012032580463799349 -0.0005979020356895827 0.0
0.0012331033849883482 -0.0006021048491837985 0.0
0.00126300935043426 -0.0006059331885975597 0.0
0.0012930557645065364 -0.0006094975284212427 0.0
0.0013232726504747395 -0.0006126806827349489 0.0
0.0013533417169029247 -0.0006154159336170762 0.0
0.0013836843985529227 -0.0006178989905673589 0.0
0.0014136629615040138 -0.0006199101450855498 0.0
0.0014440729763673288 -0.0006215901472208738 0.0
0.001473951401813817 -0.000622811233644515 0.0
0.001504443532826552 -0.0006237124353946627 0.0
0.0015343355626817727 -0.0006242232978016461 0.0
0.0015638945834231888 -0.0006241496704765759 0.0
0.0015930272258466401 -0.0006237473650905369 0.0
0.0016211071928857064 -0.0006220139906574941 0.0
0.0016489141372467728 -0.0006201861232600557 0.0
0.0016765169980133062 -0.0006177143125493758 0.0
0.0017046039674336322 -0.0006149363120280407 0.0
0.001732326310264253 -0.0006112502394564774 0.0
0.0017602277105686925 -0.0006074113767325366 0.0
0.0017891682301614128 -0.0006034550433202038 0.0
0.0018166955902197055 -0.0005985480162206741 0.0
0.0018441274283161814 -0.0005929266905772607 0.0
0.0018719498097852611 -0.0005861989943564521 0.0
0.0019001144612943444 -0.0005788148567040212 0.0
0.0019273952306041171 -0.0005705774681932126 0.0
0.001955706860752496 -0.000561163245315639 0.0
0.001983342156254511 -0.0005511997605497201 0.0
0.0020111284096884343 -0.0005407034211972615 0.0
0.002039586107662687 -0.0005293245898606817 0.0
0.002067647935426537 -0.0005174267297671705 0.0
0.002095907248133329 -0.0005048532917080269 0.0
0.002124053067554384 -0.0004917525528614622 0.0
0.002152565193418692 -0.0004781064157871431 0.0
0.0021811929825099148 -0.00046384954945599596 0.0
0.0022098606514141714 -0.0004491169866651788 0.0
0.0022383301785359024 -0.0004338554019197588 0.0
0.002266865734005514 -0.00041808779605981305 0.0
0.0022955540949802897 -0.0004017100272330753 0.0
0.0023241515113728607 -0.00038482450785280725 0.0
0.002352840075612942 -0.00036748975151816696 0.0
0.0023818268475115064 -0.0003494898459703703 0.0
0.002410799724233775 -0.0003308782971869061 0.0
0.0024397715775264788 -0.00031170517570799667 0.0
0.002469063992533386 -0.00029181340263381044 0.0
0.002498705582866541 -0.0002710646102500819 0.0
0.002528495683385942 -0.0002494527021799485 0.0
0.002558488936747339 -0.00022697498480595693 0.0
0.0025889306348148 -0.00020335335244851677 0.0
0.0026202309419022856 -0.00017826819716489558 0.0
0.00265199374716323 -0.0001515289849434193 0.0
0.00268457100029517 -0.00012251214964287063 0.0
0.0027193160514238555 -8.997612908614185e-5 0.0
0.002755240070954826 -5.233972413614347e-5 0.0
0.0027999999963318526 -1.7231763114743407e-11 0.0
0.002799999992359166 -1.952700972689205e-11 0.0
0.0027999999955436693 -1.0886399555033788e-11 0.0
0.0027999999954218314 -9.353267790700868e-12 0.0
0.0027999999958959083 -7.291808275137148e-12 0.0
0.002799999996028304 -5.941074442237173e-12 0.0
0.002799999996081864 -4.990712130320122e-12 0.0
0.002799999996227118 -4.189669283644289e-12 0.0
0.002799999996256777 -3.4720207548979436e-12 0.0
0.0027999999963881895 -2.839981631144527e-12 0.0
0.0027999999965140367 -2.353116032526615e-12 0.0
0.0027999999966323167 -1.7412395985425584e-12 0.0
0.0027999999967248963 -1.288612698337239e-12 0.0
0.002799999996843955 -7.250133183288209e-13 0.0
0.002799999996918889 -1.7143808988599708e-13 0.0
0.0027999999969630343 4.700282043763106e-13 0.0
0.002799999997023754 1.1368678625308857e-12 0.0
0.0027999999967872045 1.9487025962819656e-12 0.0
0.002799999997070789 2.6056524945736715e-12 0.0
0.0027999999966456975 3.4794579925194687e-12 0.0
0.002799999996720736 4.061615243422627e-12 0.0
0.0027999999966201255 4.618584711207468e-12 0.0
0.00279999999675559 4.707975294024106e-12 0.0
0.0027999999970805783 5.664835362728172e-12 0.0
0.002799999998456936 2.8035219007296327e-12 0.0
0.0025948855583178975 9.541376577200556e-5 0.0
0.0024213307790981625 0.0001383537912663742 0.0
0.0022672388747494794 0.00014204001410053225 0.0
0.002139502440599144 0.0001285948440101819 0.0
0.0020531720780229004 2.7467773596121132e-5 0.0
0.0020414257094634814 -1.8133983321486578e-5 0.0
0.002013242814230305 -4.822094174688826e-5 0.0
0.001972323023136041 -5.236296190653054e-5 0.0
0.0019211855244388864 -4.0596557033899044e-5 0.0
0.0018672518239368117 -2.468699567471899e-5 0.0
0.0018118748696499558 -8.281582861570992e-6 0.0
0.0017560825934519267 8.510042488846937e-6 0.0
0.001698868447475342 2.297892112010331e-5 0.0
0.001639868704865328 3.4669296633701695e-5 0.0
0.0015759083361597526 4.380450525176168e-5 0.0
0.0015008967770206933 5.058377045019984e-5 0.0
0.0013202184054552136 9.262260094736148e-5 0.0
0.0012630840598563526 0.00010993605820728345 0.0
0.0012157073398613152 0.00012106584596305532 0.0
0.001174245426214921 0.00013029701156726473 0.0
0.0011365044098047684 0.00013890315987690575 0.0
0.0011023722758035648 0.0001476727575835434 0.0
0.001071584311113384 0.00015760342427310756 0.0
0.0010453066235033884 0.0001693364977534298 0.0
0.0010249648069035415 0.00018695484024459273 0.0
0.0010104585779921497 0.00020886750058925343 0.0
0.001010949836304456 0.00025394076553426524 0.0
0.0010099070100100943 0.0003129682694768632 0.0
0.0009122450948652947 0.00042019493321546403 0.0
0.0007685694426354524 0.0004131734698583965 0.0
0.0005512991059698156 0.00034247232161462146 0.0
0.00029640948976373453 0.00022218824530264005 0.0
0.0007280014069662874 -0.0004540583659709223 0.0
0.0019215012253461048 -0.0005374966652573905 0.0
0.0009220605584870874 -0.0005192308538766746 0.0
0.0017222421999740787 -0.0005881384646444368 0.0
0.0011280437712107149 -0.0005660516303104985 0.0
0.0015155400319233144 -0.0005991386962118684 0.0
0.0013067494949758221 -0.0005893418305408369 0.0
0.002093258424863996 -0.00047654212185086777 0.0
0.0005772648270224924 -0.00039420931590623164 0.0
0.0022291418208013982 -0.0004089732432477949 0.0
0.0004536319305294061 -0.0003329801296121563 0.0
4.477830891841379e-5 -8.514305899828158e-6 0.0
0.0027481351202408074 -4.495092451632152e-6 0.0
0.0015074873600253356 7.037840281279516e-5 0.0
0.0017231891993448557 3.445734338060076e-5 0.0
0.001292469462447158 9.010401168949805e-5 0.0
0.0011347612651092867 0.00014588239049572867 0.0
0.002375455236856237 -0.00032943012909244395 0.0
0.0003398314548898795 -0.00026741309036762374 0.0
3.408665529532053e-5 -1.3360035292825819e-5 0.0
0.002762460380248678 -7.986470457953181e-6 0.0
0.002727817305854601 3.273875668090037e-6 0.0
5.811718576331318e-5 1.1840081746351453e-6 0.0
0.002492919894841857 -0.00025215974287303876 0.0
0.000243398916786414 -0.0002004112770533871 0.0
0.0018784000722087079 -5.7615044152832184e-6 0.0
0.001028162914769994 0.0001734751743799914 0.0
2.67425614304139e-5 -1.3442950285556727e-5 0.0
0.0027703346983074845 -9.415199820890907e-6 0.0
0.0010408839228985335 -0.0005482935334573919 0.0
0.0012160952754434696 -0.0005793865418864295 0.0
0.0016366320225226108 -0.0005978791216860464 0.0
0.0013999108029312678 -0.0005948169386192079 0.0
0.0018074454590034715 -0.0005706436714161357 0.0
0.002001004038169745 -0.0005141963493103676 0.0
0.0008446535745191995 -0.0004960368489153586 0.0
0.000653122474789282 -0.0004280433584198025 0.0
0.002579319115966447 -0.00018984903575151193 0.0
0.00017220544915328624 -0.00014793599182338465 0.0
0.002708401497447486 1.5594676961670796e-5 0.0
7.781344307698575e-5 1.0045466850215844e-5 0.0
0.0027757668796133694 -1.2132827865051524e-5 0.0
2.549275608260482e-5 -1.576765341171814e-5 0.0
0.0019840008712050335 -2.6744418877692867e-5 0.0
0.0009762575205940592 0.00020229510794565582 0.0
0.0026706783002840933 2.6740400315158343e-5 0.0
0.00011633439052445167 2.0373077275671762e-5 0.0
3.953498060231496e-5 -1.1975450669142475e-5 0.0
0.002754955965604822 -6.929484197262552e-6 0.0
0.001614901326173205 5.700681539770701e-5 0.0
0.0012134194421993042 0.0001265532622239078 0.0
9.67540473187745e-5 -8.471172014456537e-5 0.0
0.0026817783387522577 -0.00010661110249559688 0.0
0.001861870943379473 -0.0005595197182938889 0.0
0.001457960891466909 -0.0005987105246322028 0.0
0.000985075823043686 -0.0005350711205480858 0.0
0.0007851208784643189 -0.0004776726035896204 0.0
0.0015789332185032945 -0.000599618673603497 0.0
0.0021454043078379566 -0.00045275336379858443 0.0
0.0005276906505563159 -0.00037014506817126605 0.0
0.0022892266452172335 -0.0003790612776512434 0.0
0.0004031480342793715 -0.0003040347145927706 0.0
0.0002891790245944596 -0.00023311780098442806 0.0
0.0024339552247333008 -0.00029172126931202027 0.0
0.0006421771088117021 0.00021545156790529557 0.0
0.0023212656210619574 7.538586989044318e-5 0.0
0.0027756783904870443 -1.7048642584427783e-5 0.0
2.229175548005153e-5 -1.6132705863600386e-5 0.0
0.0009585238828013265 0.0002735089022935614 0.0
0.002067601782428831 1.1085041244158682e-5 0.0
0.00014100944928651236 3.30248446923526e-5 0.0
0.00267013425990202 2.7777732248352477e-5 0.0
4.2741848641835844e-5 -3.7385905478438345e-5 0.0
0.0027479237817517412 -4.74372644831997e-5 0.0
0.002189915731615678 6.67118826842827e-5 0.0
0.002213232433543981 5.5556843901430474e-5 0.0
0.002382472661059484 5.893677893965532e-5 0.0
0.0022758989024181686 6.255281086168409e-5 0.0
0.0021432296302839843 4.846926761598894e-5 0.0
0.0021834092771757995 6.859623373528725e-5 0.0
0.002313818472422447 7.104130213157085e-5 0.0
0.0022285390487452057 8.00669928776744e-5 0.0
0.002354119044116464 7.31011147623767e-5 0.0
0.002276753631190718 8.046104844444801e-5 0.0
0.0021593458720451206 8.70139141926538e-5 0.0
0.0022049367542020326 8.428889300831817e-5 0.0
0.0021044944681411788 9.060928711751581e-5 0.0
0.002142632943841986 8.446696396347178e-5 0.0
0.0020524885398733286 9.101556615726528e-5 0.0
0.0020875197907971673 8.110024615113374e-5 0.0
0.001472978480728663 4.1811982479470965e-5 0.0
0.0013914929240969622 2.796780291684068e-5 0.0
0.0014507466024608247 2.2710181529222963e-5 0.0
0.0013843345156883693 1.2289969505959804e-5 0.0
0.0014365791627316247 7.804592692300454e-6 0.0
0.0013793349468180075 -1.283697033853443e-7 0.0
0.0014266423524171932 -4.083932248910976e-6 0.0
0.001374760542557553 -1.0974255315467295e-5 0.0
0.0014189174837018082 -1.4472039808883252e-5 0.0
0.0013706828205000412 -2.0802559728620036e-5 0.0
0.0014126741686242637 -2.3871276920354712e-5 0.0
0.001367056276278788 -2.9938045271688982e-5 0.0
0.0014074590218459307 -3.305519422798953e-5 0.0
0.0013649279780468381 -3.8812509376743165e-5 0.0
0.001403029046990788 -4.1909737153540054e-5 0.0
0.001361917672654333 -4.7585781594677345e-5 0.0
0.00139890133675465 -5.0605792551507686e-5 0.0
0.0013577673905179866 -5.629821298398829e-5 0.0
0.001394901394223413 -5.933796838493299e-5 0.0
0.001354717618553041 -6.495760669378556e-5 0.0
0.001391333402603541 -6.813942935618794e-5 0.0
0.0013519278054936951 -7.370289360587885e-5 0.0
0.0013867649357733216 -7.69888395365014e-5 0.0
0.0013489705022888753 -8.257957380150223e-5 0.0
0.0013833202009398036 -8.594943460274617e-5 0.0
0.0013467934115786357 -9.134583805867918e-5 0.0
0.0013801452809390025 -9.505114585988864e-5 0.0
0.0013423638566995102 -9.998421341687685e-5 0.0
0.0013766062723340711 -0.00010430098646331189 0.0
0.001330919618822682 -0.00010963825709435816 0.0
0.0013754747236798444 -0.00011385010092333169 0.0
0.001336629944275238 -0.00011956180267076426 0.0
0.001372162561790788 -0.000123575503301037 0.0
0.0013352625167340213 -0.00012945959583794578 0.0
0.0013694478100317476 -0.00013360069440523914 0.0
0.0013349482620068184 -0.0001394652295426492 0.0
0.001366610417755983 -0.000143831696557036 0.0
0.0013329324395351927 -0.00014992575990875487 0.0
0.0013291691067408846 -1.578035338878277e-5 0.0
0.001363755334850846 -0.00015437418797248774 0.0
0.0013174623981599192 -6.123034443653139e-5 0.0
0.0012956854726474593 -0.00011822635943424714 0.0
0.0013282809397981595 -0.0001605851706954618 0.0
0.0013606571420297841 -0.00016520674042251333 0.0
0.001323664989252018 -0.00017191269624002023 0.0
0.0012919920312074013 -0.00016621249721249614 0.0
0.0012864523991340142 -0.00017805089354866303 0.0
0.001356145505876564 -0.00017702342607464955 0.0
0.001393676547906862 -0.0001698640177262507 0.0
0.0014076696368500441 -0.00011733047673699416 0.0
0.00138937736814256 -0.00018205962177436668 0.0
0.001429332281702365 -0.00017363947655468746 0.0
0.0014236541082428597 -0.00018704802711812517 0.0
0.0012551685186105708 -0.00017200368978209437 0.0
0.001251017807932381 -0.0001835118504127733 0.0
0.0014649284978400631 -0.00017790661258644733 0.0
0.0012177342647008813 -0.00017709876732211895 0.0
0.001215671285219647 -0.00018905356112595078 0.0
0.0014599218037239534 -0.0001915101894501297 0.0
0.001499897131419346 -0.0001829929943740852 0.0
0.0011800924466984202 -0.00018215296124341187 0.0
0.00117719447845102 -0.00019438664509999445 0.0
0.0014957590332974355 -0.00019653618031028981 0.0
0.0015369301500641006 -0.0001875032367764962 0.0
0.0011426748927660273 -0.00018704931517449092 0.0
0.0011394422973519986 -0.00019991811668173404 0.0
0.0015326012998624228 -0.0002017861326359908 0.0
0.001574992789827078 -0.00019189363576764236 0.0
0.0011056767306681374 -0.00019113320793404074 0.0
0.0011000685952808592 -0.0002043174858941291 0.0
0.0015711051846338236 -0.0002065589045935446 0.0
0.0016138316764463191 -0.000196116100917352 0.0
0.0010651341263528697 -0.00019508720314731582 0.0
0.0010605420092170091 -0.00020887746202320753 0.0
0.0010234790789890858 -0.00019965984749397095 0.0
0.0010280549830149544 -0.00018513604570471096 0.0
0.001524940698117605 -0.0002159474496540842 0.0
0.0016096600421450467 -0.00021140843359995976 0.0
0.0016533420902599715 -0.00020023162011561485 0.0
0.0016582549104530424 -0.00018447410724564965 0.0
0.00142370741776296 -7.16892819556031e-5 0.0
0.0016994758876692035 -0.00018822741814436496 0.0
0.001704792019787724 -0.00017183496946814034 0.0
0.001747464802705672 -0.00017499620444989952 0.0
0.0010221297527893672 -0.00021441287447208194 0.0
0.0009834804164028969 -0.00020353056713680992 0.0
0.001058569386687556 -0.00022365416345949388 0.0
0.0016478246002822163 -0.0002164027686566837 0.0
0.000982732713958384 -0.00021856509183792032 0.0
0.0009436375888046333 -0.0002067624962351518 0.0
0.0014464231387266045 -3.518075249460233e-5 0.0
0.0009429446108441347 -0.00022136582793923882 0.0
0.0009038736701617744 -0.00020927369614539025 0.0
0.0009034501769200815 -0.00022412233470542624 0.0
0.0008649337459310512 -0.00021085538834572407 0.0
0.000864532655570353 -0.00019643027787211365 0.0
0.0008231922151900417 -0.00019827248139378225 0.0
0.0008234691101360555 -0.00018307279122719463 0.0
0.0008600181093883249 -0.0002253442009143234 0.0
0.0007790141544167923 -0.00018488756172619744 0.0
0.0007789885602559161 -0.00016934664198422458 0.0
0.0009035317427644868 -0.00023979759381734825 0.0
0.0008666640954439206 -0.00024225118742664552 0.0
0.0007355610471838893 -0.00016982671018399577 0.0
0.0007339932644626205 -0.00015458675648956987 0.0
0.0017539902816690964 -0.00015834532209653678 0.0
0.0017984734884272343 -0.00016120684368885711 0.0
0.0009037109760713888 -0.0002556711506760689 0.0
0.000867448303903937 -0.000257934649911776 0.0
0.001805534101171787 -0.0001439984013408327 0.0
0.0018522213490213128 -0.00014690912795800113 0.0
0.00184295221660773 -0.00016586073763028009 0.0
0.001897171285779914 -0.00015052728598704017 0.0
0.0018886018931305935 -0.0001699061886418579 0.0
0.0019429844224393097 -0.00015309374565321984 0.0
0.0019369385501484832 -0.0001722589789568037 0.0
0.0019932661565185343 -0.00015342763952686027 0.0
0.001982506611736673 -0.00017317522426173372 0.0
0.0019991503167741034 -0.0001350876731807096 0.0
0.002039519875338813 -0.0001546018096325315 0.0
0.0020257908627954973 -0.000174403230265135 0.0
0.0009044864942321072 -0.0002718588581655403 0.0
0.0006881730150603398 -0.00015448775901124833 0.0
0.00068564467294665 -0.0001388558912126051 0.0
0.001973248742025392 -0.00019351658445539057 0.0
0.0020146671343280573 -0.00019451196589432437 0.0
0.0020662957992307303 -0.00017506299203687875 0.0
0.0019656683278507585 -0.00021430565971813483 0.0
0.0008692046038900465 -0.0002741489472440166 0.0
0.0020550497209834775 -0.00019491646344478076 0.0
0.0021055510573052085 -0.0001748966241401256 0.0
0.0009053359962669187 -0.00028851557064804887 0.0