# vtk DataFile Version 2.0
phase field modeling fracture
ASCII
DATASET UNSTRUCTURED_GRID
POINTS 2538 float
0.0 0.0 0.0
10.0 0.0 0.0
0.0 10.0 0.0
10.0 10.0 0.0
0.0 4.9995 0.0
0.0 5.0005 0.0
5.0 5.0 0.0
0.9416964895726688 0.0 0.0
1.803581725054446 0.0 0.0
2.592419885431098 0.0 0.0
3.314401822861676 0.0 0.0
3.975193910351406 0.0 0.0
4.579982132660152 0.0 0.0
5.133512780936812 0.0 0.0
5.640130319506143 0.0 0.0
6.103810708661955 0.0 0.0
6.528192895506818 0.0 0.0
6.916607540127679 0.0 0.0
7.272102969376355 0.0 0.0
7.597469242948583 0.0 0.0
7.895259826292669 0.0 0.0
8.167811885738017 0.0 0.0
8.417264413845215 0.0 0.0
8.645575169389538 0.0 0.0
8.854535961159101 0.0 0.0
9.045786767735546 0.0 0.0
9.220828555767493 0.0 0.0
9.38103509633881 0.0 0.0
9.527663687265145 0.0 0.0
9.661865124984566 0.0 0.0
9.784692609918062 0.0 0.0
9.897110148790482 0.0 0.0
10.0 0.09999999999992584 0.0
10.0 0.199999999999856 0.0
10.0 0.2999999999997771 0.0
10.0 0.3999999999996677 0.0
10.0 0.4999999999995511 0.0
10.0 0.5999999999994683 0.0
10.0 0.6999999999993983 0.0
10.0 0.7999999999993286 0.0
10.0 0.8999999999992587 0.0
10.0 0.9999999999991888 0.0
10.0 1.099999999999119 0.0
10.0 1.199999999999033 0.0
10.0 1.299999999998852 0.0
10.0 1.399999999998576 0.0
10.0 1.499999999998284 0.0
10.0 1.599999999997992 0.0
10.0 1.6999999999977 0.0
10.0 1.799999999997408 0.0
10.0 1.899999999997116 0.0
10.0 1.999999999996825 0.0
10.0 2.099999999996533 0.0
10.0 2.199999999996241 0.0
10.0 2.299999999995949 0.0
10.0 2.399999999995657 0.0
10.0 2.499999999995365 0.0
10.0 2.599999999995073 0.0
10.0 2.699999999994782 0.0
10.0 2.79999999999449 0.0
10.0 2.899999999994198 0.0
10.0 2.999999999993906 0.0
10.0 3.099999999993614 0.0
10.0 3.199999999993322 0.0
10.0 3.299999999993029 0.0
10.0 3.399999999992738 0.0
10.0 3.499999999992446 0.0
10.0 3.599999999992154 0.0
10.0 3.699999999991863 0.0
10.0 3.799999999991571 0.0
10.0 3.899999999991278 0.0
10.0 3.999999999991022 0.0
10.0 4.099999999991035 0.0
10.0 4.199999999991187 0.0
10.0 4.299999999991338 0.0
10.0 4.399999999991491 0.0
10.0 4.499999999991642 0.0
10.0 4.599999999991795 0.0
10.0 4.699999999991947 0.0
10.0 4.799999999992099 0.0
10.0 4.89999999999225 0.0
10.0 4.999999999992403 0.0
10.0 5.099999999992555 0.0
10.0 5.199999999992706 0.0
10.0 5.299999999992858 0.0
10.0 5.39999999999301 0.0
10.0 5.499999999993161 0.0
10.0 5.599999999993313 0.0
10.0 5.699999999993466 0.0
10.0 5.799999999993618 0.0
10.0 5.899999999993771 0.0
10.0 5.999999999993922 0.0
10.0 6.099999999994074 0.0
10.0 6.199999999994227 0.0
10.0 6.299999999994378 0.0
10.0 6.39999999999453 0.0
10.0 6.499999999994682 0.0
10.0 6.599999999994833 0.0
10.0 6.699999999994986 0.0
10.0 6.799999999995138 0.0
10.0 6.899999999995289 0.0
10.0 6.999999999995442 0.0
10.0 7.099999999995594 0.0
10.0 7.199999999995747 0.0
10.0 7.299999999995897 0.0
10.0 7.39999999999605 0.0
10.0 7.499999999996202 0.0
10.0 7.599999999996353 0.0
10.0 7.699999999996505 0.0
10.0 7.799999999996658 0.0
10.0 7.899999999996808 0.0
10.0 7.999999999996962 0.0
10.0 8.099999999997113 0.0
10.0 8.199999999997265 0.0
10.0 8.299999999997418 0.0
10.0 8.399999999997569 0.0
10.0 8.499999999997721 0.0
10.0 8.599999999997873 0.0
10.0 8.699999999998024 0.0
10.0 8.799999999998176 0.0
10.0 8.899999999998329 0.0
10.0 8.99999999999848 0.0
10.0 9.099999999998634 0.0
10.0 9.199999999998786 0.0
10.0 9.299999999998937 0.0
10.0 9.399999999999089 0.0
10.0 9.499999999999241 0.0
10.0 9.599999999999392 0.0
10.0 9.699999999999545 0.0
10.0 9.799999999999697 0.0
10.0 9.899999999999848 0.0
9.897110148790565 10.0 0.0
9.784692609918244 10.0 0.0
9.66186512498486 10.0 0.0
9.527663687265571 10.0 0.0
9.381035096339392 10.0 0.0
9.220828555768257 10.0 0.0
9.045786767736512 10.0 0.0
8.854535961160305 10.0 0.0
8.645575169391027 10.0 0.0
8.417264413847017 10.0 0.0
8.167811885740178 10.0 0.0
7.895259826295246 10.0 0.0
7.597469242951631 10.0 0.0
7.272102969379938 10.0 0.0
6.916607540131873 10.0 0.0
6.528192895511704 10.0 0.0
6.103810708667616 10.0 0.0
5.640130319512691 10.0 0.0
5.13351278094435 10.0 0.0
4.579982132668816 10.0 0.0
3.975193910361222 10.0 0.0
3.314401822869852 10.0 0.0
2.592419885437257 10.0 0.0
1.803581725058137 10.0 0.0
0.9416964895740705 10.0 0.0
0.0 9.00010000000243 0.0
0.0 8.000200000005481 0.0
0.0 7.000300000005135 0.0
0.0 6.000400000002569 0.0
0.901790731451151 5.000409820926855 0.0
1.657200899774397 5.000334279910023 0.0
2.289991063707192 5.000271000893629 0.0
2.820065163538221 5.000217993483646 0.0
3.264096435579811 5.000173590356442 0.0
3.636051481595835 5.00013639485184 0.0
3.947629914072366 5.000105237008593 0.0
4.208632181002628 5.0000791367819 0.0
4.427267949625672 5.000057273205037 0.0
4.610414277633563 5.000038958572237 0.0
4.763831845154243 5.000023616815485 0.0
4.892346298799659 5.00001076537012 0.0
4.892346298799748 4.99998923462988 0.0
4.763831845154455 4.999976383184515 0.0
4.610414277633943 4.999961041427763 0.0
4.427267949626277 4.999942726794963 0.0
4.208632181003523 4.9999208632181 0.0
3.94762991407365 4.999894762991407 0.0
3.636051481597624 4.99986360514816 0.0
3.264096435582253 4.999826409643559 0.0
2.820065163541503 4.999782006516354 0.0
2.289991063711534 4.999728999106371 0.0
1.657200899778495 4.999665720089978 0.0
0.9017907314530094 4.999590179073145 0.0
0.0 3.999600000002013 0.0
0.0 2.999700000005187 0.0
0.0 1.99980000000512 0.0
0.0 0.9999000000025537 0.0
9.897889398521345 2.93573355845387 0.0
9.906568249974548 7.060009441434234 0.0
9.913122631074113 3.64016132281653 0.0
9.922462129543863 6.354535290629151 0.0
9.917693659967533 4.354211663134567 0.0
9.909873057440208 5.637584487339942 0.0
9.914183254994697 4.950672966925282 0.0
9.913885043715895 7.666887930262611 0.0
9.91009668007573 2.351889069770817 0.0
9.905135696074536 8.138152454502785 0.0
9.913397459621809 1.849999999997262 0.0
7.099302372137626 0.297750452375005 0.0
7.095143729410097 9.700359990366296 0.0
4.942912558701401 5.095838627899509 0.0
4.315009232304429 5.165022115481685 0.0
4.946182472483878 4.906763777264103 0.0
4.317967462990024 4.825955043772673 0.0
9.916390871492647 8.64999999999792 0.0
9.921504649680616 1.368376469890358 0.0
8.292538149791614 0.206877570318844 0.0
8.292538149793597 9.793122429681448 0.0
5.884594439766573 9.587645267048616 0.0
5.794826292691579 0.3794853783929359 0.0
9.913397459621425 9.049999999998557 0.0
9.908526577714177 0.9568239351922434 0.0
3.456851160380649 5.315740054130451 0.0
3.457889657868442 4.707121019609468 0.0
8.945214200703926 0.1503383337970344 0.0
8.950161364448409 9.8413906539257 0.0
9.913862335499305 4.055887885208452 0.0
9.916697353372683 4.650158482607802 0.0
9.919076340414442 6.049999999994006 0.0
9.906994308667635 5.25749687748192 0.0
9.917490342358025 6.655979201891897 0.0
9.915757520293784 7.343848891656911 0.0
9.910049507471042 3.363474386285078 0.0
9.914471988502868 2.647400064832979 0.0
9.91474124160965 9.337490423485129 0.0
9.916971008170838 0.6499999999994355 0.0
4.307157269264427 9.509674045029644 0.0
4.331527375865619 0.4401616696422582 0.0
9.45434939180249 9.878397030523757 0.0
9.457696120412969 0.1270877537061785 0.0
2.555070293622606 5.422044496190925 0.0
2.566232917480916 4.608001224030952 0.0
3.026511860837692 9.332320638257093 0.0
2.945561971800619 0.5895662714727601 0.0
7.7395404387124 0.2511088946967771 0.0
7.736379255744154 9.745848826372828 0.0
4.687135269408529 5.122111433928926 0.0
4.688420821504113 4.871895064967488 0.0
9.910554884115975 0.3448356354522978 0.0
9.911230082250466 9.65764729394159 0.0
9.921953841410854 6.851023993342036 0.0
9.912065178606017 5.448170483544033 0.0
9.911660025326261 3.861846960030188 0.0
9.914847467973438 3.14501593945607 0.0
9.913397459621425 5.849999999993703 0.0
9.913397459621425 7.849999999996735 0.0
9.906916878988277 2.15455769998631 0.0
9.913397459621425 8.349999999997479 0.0
9.909472363117661 1.640528221515488 0.0
9.913987325695956 1.152857110636247 0.0
9.913397459621425 8.849999999998241 0.0
0.9100099990995943 2.614215977520411 0.0
0.8395284981715456 7.451196254860987 0.0
9.723278867451556 9.898135916635193 0.0
9.723316350887044 0.09841820909386662 0.0
1.385819164827588 4.454539963646463 0.0
1.338343629665047 5.523111536005823 0.0
1.377179700550677 0.6809168304959698 0.0
1.418060461092743 9.285896715136046 0.0
9.91268220142518 0.1457914080939694 0.0
9.906737126737994 9.845745933882352 0.0
0.7108351382691361 6.537941170074089 0.0
1.527735020267026 6.915620208855231 0.0
1.630993885659103 7.838271825205868 0.0
2.232760943566823 7.370850737296832 0.0
2.243414218068206 6.688299277952821 0.0
2.779655053105118 7.021588754814074 0.0
2.80227799359795 7.632420170547022 0.0
3.282022065908813 7.305859666021318 0.0
3.327597298795347 7.857554136825748 0.0
3.743210251018715 7.549183328204379 0.0
3.716353232200752 7.062036086888612 0.0
4.111978858674101 7.27497101169417 0.0
4.104192177581432 6.879858986267289 0.0
4.436230765617037 7.045693351607117 0.0
4.430360014817357 6.703971783962796 0.0
4.732390145036301 6.849841042423394 0.0
5.056161327708878 5.095276573498806 0.0
5.111586796021131 4.999081142133581 0.0
5.169267363407189 5.09444870412406 0.0
5.223795108752053 4.996986220359468 0.0
5.281480803887719 5.092780870372803 0.0
5.335670761900611 4.994887492556936 0.0
5.393485214772442 5.090486192743301 0.0
5.447323082877892 4.992601527033996 0.0
5.505243219343024 5.087953380710069 0.0
5.558739102026105 4.990287787962959 0.0
5.616491581184779 5.085335255235766 0.0
5.669852346908056 4.9879269227514 0.0
5.727502713908907 5.082679981817038 0.0
5.780766004135139 4.988313988715834 0.0
5.838244881129535 5.080480568766611 0.0
5.891357695677371 4.986433849408193 0.0
5.948696036767613 5.077969900389505 0.0
6.001601341641615 4.981313698556656 0.0
6.058851024265095 5.074871552128682 0.0
6.111614020704875 4.978360695880202 0.0
6.168801161530775 5.072044953270978 0.0
6.221368818778567 4.975825765213497 0.0
6.278268309066882 5.066182320461055 0.0
6.330814273567539 4.972837984645718 0.0
6.387565032421376 5.062889771971895 0.0
6.437476667631405 4.971693683589553 0.0
[...]
POINT_DATA 2538
VECTORS disp float
1.8640365364841125e-11 4.774091353680663e-11 0.0
3.9101186522247025e-11 -1.0692250375948531e-10 0.0
0.004399999984619199 4.0751233857978966e-11 0.0
0.004399999959833222 -1.1099765997934158e-10 0.0
0.0013982972494973706 0.0005834753920954817 0.0
0.0031702859419301347 0.0003753090472034518 0.0
0.0021660314564666354 0.000136412624302805 0.0
5.187352841098831e-12 4.8167404442758e-12 0.0
9.373517735009265e-12 1.1542721295736866e-11 0.0
8.629132674956043e-12 7.216783935485402e-12 0.0
8.507980167538687e-12 6.69917525462075e-12 0.0
8.018066733523626e-12 5.0269547199504315e-12 0.0
7.529531961525298e-12 3.642830383381946e-12 0.0
7.08235605366846e-12 2.161839784861904e-12 0.0
6.723981486655938e-12 5.950678688433037e-13 0.0
5.933240835254124e-12 -1.129795878189369e-12 0.0
6.226987430860951e-12 -2.653420249306516e-12 0.0
5.9518806321995315e-12 -4.399436299350361e-12 0.0
5.925870825212285e-12 -6.2590734791618295e-12 0.0
6.071309792214633e-12 -8.115618705135539e-12 0.0
5.993688736223907e-12 -9.883115353120797e-12 0.0
6.308020955750384e-12 -1.1995030899591395e-11 0.0
6.29737800658824e-12 -1.3795838562455164e-11 0.0
6.637856788750915e-12 -1.5894489338121465e-11 0.0
6.743484014308291e-12 -1.828822551950053e-11 0.0
7.026070973816267e-12 -2.0536492323892442e-11 0.0
7.330132133653765e-12 -2.3217274235496073e-11 0.0
7.72771556617307e-12 -2.6209162642881884e-11 0.0
8.465671926038439e-12 -2.979526243660446e-11 0.0
8.486911421547204e-12 -3.360788737323052e-11 0.0
1.1463621212870143e-11 -4.2163730827672476e-11 0.0
4.913825710463893e-12 -3.873521899777719e-11 0.0
5.434936722039694e-5 -7.342926120780427e-5 0.0
9.383645406023514e-5 -0.00012688341150187289 0.0
0.00013213357372621608 -0.00017353983774404913 0.0
0.00016882995224697572 -0.0002159915807308818 0.0
0.00020441991851237226 -0.0002554848180765706 0.0
0.000239639137079521 -0.0002929819860495666 0.0
0.00027506181824023506 -0.00032864600698569944 0.0
0.0003103499919996447 -0.0003627528323088813 0.0
0.0003458065714941307 -0.0003955990653290543 0.0
0.00038151192368772045 -0.0004271945015143901 0.0
0.0004174871590923236 -0.00045779865665877584 0.0
0.00045399093366282005 -0.0004874296076811701 0.0
0.000490745298065714 -0.0005160843921128071 0.0
0.0005279372031160571 -0.0005439728001572149 0.0
0.0005657802188464888 -0.0005710564192106552 0.0
0.0006038611348393422 -0.0005972954622970036 0.0
0.0006424418970519498 -0.0006228400838890452 0.0
0.0006815072577558487 -0.0006475752346141882 0.0
0.0007210293250609346 -0.0006716341699340113 0.0
0.0007610263287705917 -0.0006950144444385229 0.0
0.0008015466182011835 -0.0007177194820517803 0.0
0.0008424875936310561 -0.0007397297831363182 0.0
0.000884089508305779 -0.0007611548017445917 0.0
0.0009259665246206128 -0.0007818594340032679 0.0
0.0009685508894577827 -0.0008019604644672909 0.0
0.001011376094222758 -0.0008213481084967048 0.0
0.0010547469047655158 -0.0008401409439163691 0.0
0.0010985004282957496 -0.0008582090893550777 0.0
0.0011428738714394527 -0.00087570978220286 0.0
0.0011874595215775447 -0.0008925228425921206 0.0
0.0012326533612118744 -0.0009087399642474735 0.0
0.0012781960210177063 -0.0009242399680267073 0.0
0.001324191811848098 -0.0009391120456878684 0.0
0.0013704911600659596 -0.0009532942902721699 0.0
0.0014173537776567128 -0.0009668618295193532 0.0
0.0014643879960477397 -0.0009796921694486362 0.0
0.001511844867914396 -0.0009918654345313239 0.0
0.0015595876159982757 -0.0010032920483259255 0.0
0.0016076766020692815 -0.0010140029377088138 0.0
0.0016560323322994618 -0.001024070991747552 0.0
0.0017046237337158844 -0.0010333434800320828 0.0
0.001753523630049495 -0.0010419757343751938 0.0
0.0018026637471521033 -0.0010498294082699378 0.0
0.0018519409866337036 -0.0010570218727785664 0.0
0.0019014502883906465 -0.0010633759085645238 0.0
0.0019509529194103598 -0.001069048865609966 0.0
0.0020006587092983113 -0.0010739950508943878 0.0
0.002050382956120707 -0.0010781218789180174 0.0
0.0021001347690014546 -0.0010815754786235065 0.0
0.0021500305381964664 -0.0010842047148382071 0.0
0.0021994652545403166 -0.0010858962990157829 0.0
0.0022493618028611067 -0.0010869562575945952 0.0
0.002297915756573654 -0.0010870079358912049 0.0
0.0023471452386877823 -0.001086184873395272 0.0
0.0023941855082444084 -0.0010842214808214144 0.0
0.0024428788759379458 -0.0010815561743355154 0.0
0.0024899282929388192 -0.0010777703308108436 0.0
0.002536948667119999 -0.0010722823660890145 0.0
0.002584137191360503 -0.001065723131539811 0.0
0.002631661294344817 -0.001057471982539308 0.0
0.0026792750486561777 -0.0010482470554055042 0.0
0.002727204328981091 -0.0010377178679760331 0.0
0.0027753429817661377 -0.00102633619740618 0.0
0.002823554772898094 -0.0010138042033049205 0.0
0.0028719194554249145 -0.0010004141797394126 0.0
0.0029201966900465324 -0.0009864111371367414 0.0
0.0029681197016664935 -0.0009715780472641112 0.0
0.00301584362349302 -0.0009561553829830717 0.0
0.0030634043852220526 -0.0009399866167136781 0.0
0.0031107141845074147 -0.0009230723064293095 0.0
0.0031575339590857628 -0.0009055859275982731 0.0
0.00320428201444263 -0.0008873466473394424 0.0
0.0032504314040114743 -0.0008684453766596472 0.0
0.003296208014616555 -0.0008490022512710035 0.0
0.0033417760604903214 -0.0008287638047114974 0.0
0.0033867090010794906 -0.0008079834901099107 0.0
0.0034313609924645316 -0.0007865480334532822 0.0
0.0034755442998954137 -0.0007644543353320849 0.0
0.003519409440814701 -0.0007417080826030454 0.0
0.0035628520004410903 -0.0007182115508084749 0.0
0.003605920657971398 -0.0006940043769227527 0.0
0.0036483811113714243 -0.0006691824910477428 0.0
0.0036905489819828766 -0.0006436675587537108 0.0
0.0037323839501044852 -0.0006173772208479823 0.0
0.003773719788586564 -0.000590334776555121 0.0
0.003814746086719763 -0.0005625715727964553 0.0
0.0038555714002654396 -0.0005338883945946073 0.0
0.003895914203591041 -0.0005043188595128815 0.0
0.003935877609515172 -0.0004739145301337138 0.0
0.003975794970311588 -0.0004424973920358313 0.0
0.004015629963464387 -0.00040991015253068143 0.0
0.004055155151245432 -0.0003760803536679651 0.0
0.004094473437275704 -0.0003409522493555277 0.0
0.004133927449868507 -0.0003042529882653159 0.0
0.004173992607541185 -0.0002655749544511435 0.0
0.0042141317440716666 -0.00022466041396708067 0.0
0.004254822480763339 -0.0001805818970139342 0.0
0.004297996365365321 -0.00013192605645187918 0.0
0.004342314184483598 -7.620362821256361e-5 0.0
0.004399999994508275 -3.672668756237271e-11 0.0
0.0043999999877439525 -4.064515011645195e-11 0.0
0.004399999991145163 -2.931230099866427e-11 0.0
0.0043999999911020805 -2.6163499735358712e-11 0.0
0.0043999999916495254 -2.2472397800895257e-11 0.0
0.004399999992062775 -1.9601019273794617e-11 0.0
0.004399999992221425 -1.7332095701253264e-11 0.0
0.0043999999925117455 -1.5283285589551695e-11 0.0
0.004399999992599262 -1.3365452138159735e-11 0.0
0.004399999992753625 -1.1493960646955002e-11 0.0
0.004399999993087258 -9.97785489028723e-12 0.0
0.004399999993026538 -7.991738436250274e-12 0.0
0.004399999993189439 -6.507301179577291e-12 0.0
0.004399999993276946 -4.783494929472865e-12 0.0
0.004399999993292457 -3.137799418359905e-12 0.0
0.004399999993237678 -1.4130578966162487e-12 0.0
0.004399999993237643 2.6715240892256543e-13 0.0
0.004399999992604079 2.1408422704309387e-12 0.0
0.004399999993006258 3.639316530368872e-12 0.0
0.004399999991995684 5.527383767271436e-12 0.0
0.00439999999197678 6.765640037419531e-12 0.0
0.004399999991597938 8.120832674026499e-12 0.0
0.004399999991914205 8.519893526637098e-12 0.0
0.004399999991680017 1.1936865503357077e-11 0.0
0.004399999995556595 5.593772016277321e-12 0.0
0.004076861450395098 0.00024368959899148966 0.0
0.0037930859018626443 0.00035465774512072107 0.0
0.0035335755845356336 0.00039721982597656983 0.0
0.0033126095558216185 0.000394208521574568 0.0
0.003162268232887529 0.00024159193281856267 0.0
0.0031391213732811533 0.00017087647233128645 0.0
0.003090786636540426 0.00013947673420089645 0.0
0.003033382332665198 0.00012745592279487893 0.0
0.0029661813867541617 0.00012756514916623593 0.0
0.002893092953686943 0.0001316475722072695 0.0
0.002815299175740859 0.00013696637986404888 0.0
0.002734154956486873 0.00014428012341906676 0.0
0.002648122653770248 0.00015029906937939042 0.0
0.002556497754082313 0.00015421989136447202 0.0
0.0024549718376898487 0.00015602829176201017 0.0
0.002332948193643493 0.00015693223757448432 0.0
0.0020054145586472037 0.0001775348635573282 0.0
0.001892526848707715 0.00018958016103756762 0.0
0.0017995605627581953 0.0001936732275804713 0.0
0.001718695548217231 0.0001961205705603048 0.0
0.0016455922438693845 0.00019852572400997162 0.0
0.0015796206369101224 0.00020187157923287245 0.0
0.001520590409211644 0.000207649626352093 0.0
0.0014704783233013166 0.00021786291005919725 0.0
0.0014314238022772657 0.00023822649964832805 0.0
0.0014048657198396243 0.00027399994880106964 0.0
0.0013945867108210886 0.00033438526459170605 0.0
0.0013940428313134782 0.0004323286742395737 0.0
0.0012338731954519549 0.0005940834375235321 0.0
0.0009942226623621717 0.0005561082707908059 0.0
0.0006909571960730266 0.00045848131574708056 0.0
0.000365140499680605 0.0003002480145062577 0.0
0.0011522099977281871 -0.0008385709574278245 0.0
0.0031472016191158455 -0.0008652591137294664 0.0
0.0014788606169560908 -0.000945804464726227 0.0
0.0028075009060261865 -0.0009775006255029462 0.0
0.0018263428565951712 -0.0010159477327246805 0.0
0.002463189129010708 -0.001033974299876427 0.0
0.002124148905036562 -0.0010429591539421789 0.0
0.003425129874143353 -0.0007528397405803325 0.0
0.0008991504316915501 -0.0007359579312084469 0.0
0.0036322492603933177 -0.0006421122878393692 0.0
0.0006941504526083356 -0.000626946704856851 0.0
7.186381900223062e-5 -1.3876830000156656e-5 0.0
0.004326785281067402 -1.342897980467918e-5 0.0
0.00236070366819054 0.00017515318234608723 0.0
0.002703284026776799 0.00016895655604015188 0.0
0.0019734956716205396 0.00018532993174801354 0.0
0.0016617447652078564 0.00021477526621876085 0.0
0.0038448103936639306 -0.0005128922825032964 0.0
0.0005089571203203746 -0.0005072042282696468 0.0
4.9221191524993234e-5 -2.5237756626507703e-5 0.0
0.004349202587122015 -2.3026062948527222e-5 0.0
0.004294936498423632 3.0378240543928985e-6 0.0
9.686678115117835e-5 3.6428612901349513e-6 0.0
0.004006418757353231 -0.00039123338561465945 0.0
0.0003568675902823023 -0.00038272740772562 0.0
0.002941189284241117 0.00015699371637161428 0.0
0.0014647054117055051 0.0002268047528668386 0.0
3.656438711374735e-5 -2.7590443575647715e-5 0.0
0.004359773925748506 -2.619104712209245e-5 0.0
0.0016795076950478136 -0.0009900871996286953 0.0
0.001973615106196115 -0.001033103454843619 0.0
0.002660287733532623 -0.001008746767381252 0.0
0.0022776211036969747 -0.0010431485564680095 0.0
0.002953843996952086 -0.0009346276295206287 0.0
0.003278392100597079 -0.0008185601813290108 0.0
0.001348426757326467 -0.0009086917718090535 0.0
0.0010259800240787192 -0.0007950304636867491 0.0
0.004120517772085022 -0.000293891539626956 0.0
0.0002481012107342463 -0.00028353321598280096 0.0
0.004266053127184269 2.743019591024519e-5 0.0
0.00012082225671038447 2.2925655435727074e-5 0.0
0.004366380807009025 -2.9222341354260843e-5 0.0
3.378400066927432e-5 -3.366875976967329e-5 0.0
0.0030824814783344968 0.00015886706452987795 0.0
0.001361716398016623 0.0002640254454097679 0.0
0.004212515673187703 5.1204671301204315e-5 0.0
0.00016756652237739727 4.534383203288546e-5 0.0
5.991703507562127e-5 -2.1022078506165222e-5 0.0
0.004337978272852939 -1.978364661868534e-5 0.0
0.0025304012234978386 0.00017767651886950748 0.0
0.0018142408013147424 0.00021120117441722375 0.0
0.00013713349289543923 -0.0001638901467617368 0.0
0.004250949581625138 -0.00016630835875458262 0.0
0.003046826863689817 -0.0009074614289662813 0.0
0.0023715002385737254 -0.0010427250594963234 0.0
0.0015851823953688012 -0.0009700781075983326 0.0
0.0012479851202318974 -0.0008790134215596959 0.0
0.0025645179864451596 -0.001022603668750831 0.0
0.0035062918254808355 -0.0007128724252616162 0.0
0.0008167088180114963 -0.000693370306621069 0.0
0.003720995629453663 -0.000592645670633087 0.0
0.0006116274603860516 -0.0005743822735434827 0.0
0.00042849015706463063 -0.00044370066799440827 0.0
0.0039261849067224585 -0.00045345347392582923 0.0
0.0008297014028449471 0.00031987757695564373 0.0
0.003654295818098417 0.00026145047489778135 0.0
0.004367365086168546 -3.374278733887023e-5 0.0
2.9449529138477824e-5 -3.4179961079968985e-5 0.0
0.001307289897499052 0.0003647881246238485 0.0
0.0031947470363430674 0.00021482823210379947 0.0
0.0001898566577824544 7.30036843657123e-5 0.0
0.0042076678742517725 6.989507283324121e-5 0.0
5.978088270869784e-5 -7.354890100584599e-5 0.0
0.004333379157986041 -7.64716027696287e-5 0.0
0.0034170044075924224 0.00029370494067790546 0.0
0.0034980844079939557 0.00023236987325037057 0.0
0.0037695402670655984 0.0001841414646679696 0.0
0.0036159857882105254 0.0001918187588795938 0.0
0.003407507768673525 0.00021118744064371113 0.0
0.003484416071689889 0.0001986143141739635 0.0
0.0036835267943880223 0.00017118476322802988 0.0
0.0035594558916005412 0.00018307701035645362 0.0
0.00374717757115103 0.00015146236208263842 0.0
0.003632481001614105 0.00016208183431081155 0.0
0.0034564149765277316 0.00018843170779180515 0.0
0.0035233369233520066 0.0001664457452468719 0.0
0.003371533726260645 0.0001871262748289685 0.0
0.0034255585978839446 0.00016363793466978193 0.0
0.0032870205596461474 0.00018101710164117714 0.0
0.003335706361882059 0.00015344568309893014 0.0
0.0023036415849083305 0.00011731137523945274 0.0
0.0021622286137725757 9.410649141078787e-5 0.0
0.002273052315866949 8.321871856861142e-5 0.0
0.0021586124166605362 6.645265101598844e-5 0.0
0.0022551918354353348 5.707355985973531e-5 0.0
0.002156848771092985 4.419916907110108e-5 0.0
0.00224368714720652 3.486912424699555e-5 0.0
0.0021549011208400483 2.369057713511784e-5 0.0
0.002235322560990514 1.4761884998713381e-5 0.0
0.0021531963615390964 4.665121145813708e-6 0.0
0.0022289812263397327 -3.7932804962580547e-6 0.0
0.002151884442518863 -1.3160296648216916e-5 0.0
0.002224093902832614 -2.176567469209354e-5 0.0
0.002152802432513039 -3.0473816831492542e-5 0.0
0.0022202791304896602 -3.901894521642383e-5 0.0
0.002151860778789061 -4.743486480353425e-5 0.0
0.0022168186966707976 -5.5834973997168564e-5 0.0
0.002148786619941653 -6.405835952527762e-5 0.0
0.002213419385593708 -7.241618656830789e-5 0.0
0.0021473558949346746 -8.041983275333991e-5 0.0
0.0022105886833421497 -8.888657040613356e-5 0.0
0.0021462128286467773 -9.674582250113425e-5 0.0
0.0022059926993403902 -0.00010522652448910712 0.0
0.002144712424787468 -0.00011314561162088433 0.0
0.002203279470664158 -0.00012169708301192029 0.0
0.00214438119821697 -0.00012926212237286715 0.0
0.002200961934033189 -0.00013827149294456633 0.0
0.002140132661030773 -0.00014485687072482545 0.0
0.0021980448500351106 -0.00015495533162499444 0.0
0.002124607131593132 -0.0001617545214299085 0.0
0.0021990938265775343 -0.0001721995802559473 0.0
0.0021372349653076767 -0.00018012629322137566 0.0
0.0021964904266020633 -0.0001895240183748357 0.0
0.002138054706916523 -0.00019793167314317934 0.0
0.0021948765409076794 -0.00020737035786519138 0.0
0.0021405056992078817 -0.0002159417742662876 0.0
0.002193035340063595 -0.00022553071377266051 0.0
0.002140163997562717 -0.00023461578557280492 0.0
0.0020775415022403136 1.539789313934176e-5 0.0
0.0021911715923666644 -0.0002442234807662575 0.0
0.0020824344728868262 -7.103911978222583e-5 0.0
0.0020696886609319243 -0.00017520653367601973 0.0
0.0021355120853358447 -0.00025351391768416317 0.0
0.0021889070292105957 -0.0002634292622817205 0.0
0.0021309632486338874 -0.0002736318178634872 0.0
0.0020783928357826593 -0.0002618536550525461 0.0
0.002072487056988589 -0.0002829776808273975 0.0
0.0021845014357237103 -0.0002843489627098283 0.0
0.0022431268759373862 -0.0002734015324681735 0.0
0.0022526608114215576 -0.00018044401806615847 0.0
0.0022390352710219643 -0.0002949413162445478 0.0
0.0023011597577394303 -0.0002819168468665971 0.0
0.0022950241952192844 -0.00030545558285993864 0.0
0.002020447592989238 -0.0002706290716492519 0.0
0.0020166587607975115 -0.00029138697428589033 0.0
0.002358984217894045 -0.00029126078331719274 0.0
0.0019612958981617607 -0.00027834601201874874 0.0
0.001960917300868044 -0.00030017136703118453 0.0
0.0023538754256510305 -0.0003150997597826926 0.0
0.002415745696240116 -0.00030199092520988134 0.0
0.0019017473590105121 -0.0002862280422695546 0.0
0.00189998488672247 -0.0003087549281731992 0.0
0.002411949805306483 -0.0003257115625273332 0.0
0.002475451047629249 -0.00031180179540287226 0.0
0.001842446463799418 -0.000294131254588354 0.0
0.0018401507592163404 -0.0003180606638286165 0.0
0.0024714904543469813 -0.00033678572421526294 0.0
0.0025365690537339247 -0.0003214810952207944 0.0
0.0017835691215747611 -0.00030082181634439106 0.0
0.0017773319554338838 -0.00032554579779212284 0.0
0.002533402905777664 -0.0003471429200635522 0.0
0.002598713266055317 -0.00033095589500256736 0.0
0.001718835615286133 -0.0003075563605300164 0.0
0.0017141286623246102 -0.0003337680256374339 0.0
0.0016523034599252703 -0.000315923468511358 0.0
0.0016566290648600517 -0.0002881632334216394 0.0
0.0024622291299778885 -0.0003614652158510352 0.0
0.002595244961071877 -0.0003576631480824884 0.0
0.0026617364077173673 -0.000340284838930915 0.0
0.0026662885528593487 -0.0003129086470601146 0.0
0.002266234653142628 -9.781812388645016e-5 0.0
0.00273171741935394 -0.0003217485670984053 0.0
0.00273682774645052 -0.00029337966480967766 0.0
0.002804202202268282 -0.0003013278475573061 0.0
0.0016527406830281475 -0.00034431507277780845 0.0
0.0015881655321126216 -0.0003234455124193327 0.0
0.0017133681508761638 -0.0003619857621271117 0.0
0.002656365281164607 -0.0003684299684593727 0.0
0.0015893343563582894 -0.00035265551530352403 0.0
0.0015240436397624222 -0.0003301829349871106 0.0
0.002292558093737064 -2.90455350147996e-5 0.0
0.0015249153851851552 -0.00035886258680124496 0.0
0.001459779287142799 -0.00033602303358210836 0.0
0.0014607924785175858 -0.0003654788866371577 0.0
0.001396552750587282 -0.00034049233275029045 0.0
0.0013941130965017575 -0.00031177611998063815 0.0
0.0013272022992312771 -0.00031707228849854065 0.0
0.0013257004850495506 -0.0002867395662547261 0.0
0.0013898813594178583 -0.00036973392817917953 0.0
0.0012539481075354948 -0.000292418753626153 0.0
0.0012518829864609149 -0.000261361345868537 0.0
0.0014622456895347327 -0.0003967066372593456 0.0
0.0014018957742971468 -0.00040337801673182597 0.0
0.0011818742738661525 -0.00026461779517560427 0.0
0.00117744415777882 -0.0002344142786134876 0.0
0.0028112378608325162 -0.00027264763088940104 0.0
0.002881163743256 -0.00028022913704484455 0.0
0.001463458082213808 -0.0004283886194146496 0.0
0.0014037816319978883 -0.0004349087815530172 0.0
0.0028890099550797476 -0.0002507050910662228 0.0
0.002962154584124637 -0.00025855559321347497 0.0
0.002951342822704537 -0.0002909324797493038 0.0
0.003032690119053025 -0.00026750189045669006 0.0
0.003023274976172451 -0.0003006968884696183 0.0
0.0031045517586707886 -0.0002747121876936723 0.0
0.00309929644590973 -0.0003077094673524634 0.0
0.003183097316249249 -0.0002783489568355581 0.0
0.003170872038700917 -0.00031205736639591195 0.0
0.003188367338656476 -0.00024674342454543023 0.0
0.003255875641281272 -0.0002832473936512091 0.0
0.0032393305327324423 -0.00031682805661992816 0.0
0.0014652627344849218 -0.0004607056307350635 0.0
0.0011037960898511647 -0.00023694341616778536 0.0
0.0010979879430400978 -0.00020635399958572744 0.0
0.0031614204497380314 -0.0003466856858643372 0.0
0.0032273873509218003 -0.0003509740216651608 0.0
0.003303998518173596 -0.00032067134188960627 0.0
0.003155050429301246 -0.00038216442322233765 0.0
0.0014069139481685082 -0.00046745775850806626 0.0
0.0032923862252762968 -0.0003543670510181906 0.0
0.003367185492341911 -0.00032324926494768316 0.0
0.0014668275380417962 -0.0004939741738379645 0.0
0.0014095126593668163 -0.0005009748197528234 0.0