# vtk DataFile Version 2.0
phase field modeling fracture
ASCII
DATASET UNSTRUCTURED_GRID
POINTS 2538 float
0.0 0.0 0.0
10.0 0.0 0.0
0.0 10.0 0.0
10.0 10.0 0.0
0.0 4.9995 0.0
0.0 5.0005 0.0
5.0 5.0 0.0
0.9416964895726688 0.0 0.0
1.803581725054446 0.0 0.0
2.592419885431098 0.0 0.0
3.314401822861676 0.0 0.0
3.975193910351406 0.0 0.0
4.579982132660152 0.0 0.0
5.133512780936812 0.0 0.0
5.640130319506143 0.0 0.0
6.103810708661955 0.0 0.0
6.528192895506818 0.0 0.0
6.916607540127679 0.0 0.0
7.272102969376355 0.0 0.0
7.597469242948583 0.0 0.0
7.895259826292669 0.0 0.0
8.167811885738017 0.0 0.0
8.417264413845215 0.0 0.0
8.645575169389538 0.0 0.0
8.854535961159101 0.0 0.0
9.045786767735546 0.0 0.0
9.220828555767493 0.0 0.0
9.38103509633881 0.0 0.0
9.527663687265145 0.0 0.0
9.661865124984566 0.0 0.0
9.784692609918062 0.0 0.0
9.897110148790482 0.0 0.0
10.0 0.09999999999992584 0.0
10.0 0.199999999999856 0.0
10.0 0.2999999999997771 0.0
10.0 0.3999999999996677 0.0
10.0 0.4999999999995511 0.0
10.0 0.5999999999994683 0.0
10.0 0.6999999999993983 0.0
10.0 0.7999999999993286 0.0
10.0 0.8999999999992587 0.0
10.0 0.9999999999991888 0.0
10.0 1.099999999999119 0.0
10.0 1.199999999999033 0.0
10.0 1.299999999998852 0.0
10.0 1.399999999998576 0.0
10.0 1.499999999998284 0.0
10.0 1.599999999997992 0.0
10.0 1.6999999999977 0.0
10.0 1.799999999997408 0.0
10.0 1.899999999997116 0.0
10.0 1.999999999996825 0.0
10.0 2.099999999996533 0.0
10.0 2.199999999996241 0.0
10.0 2.299999999995949 0.0
10.0 2.399999999995657 0.0
10.0 2.499999999995365 0.0
10.0 2.599999999995073 0.0
10.0 2.699999999994782 0.0
10.0 2.79999999999449 0.0
10.0 2.899999999994198 0.0
10.0 2.999999999993906 0.0
10.0 3.099999999993614 0.0
10.0 3.199999999993322 0.0
10.0 3.299999999993029 0.0
10.0 3.399999999992738 0.0
10.0 3.499999999992446 0.0
10.0 3.599999999992154 0.0
10.0 3.699999999991863 0.0
10.0 3.799999999991571 0.0
10.0 3.899999999991278 0.0
10.0 3.999999999991022 0.0
10.0 4.099999999991035 0.0
10.0 4.199999999991187 0.0
10.0 4.299999999991338 0.0
10.0 4.399999999991491 0.0
10.0 4.499999999991642 0.0
10.0 4.599999999991795 0.0
10.0 4.699999999991947 0.0
10.0 4.799999999992099 0.0
10.0 4.89999999999225 0.0
10.0 4.999999999992403 0.0
10.0 5.099999999992555 0.0
10.0 5.199999999992706 0.0
10.0 5.299999999992858 0.0
10.0 5.39999999999301 0.0
10.0 5.499999999993161 0.0
10.0 5.599999999993313 0.0
10.0 5.699999999993466 0.0
10.0 5.799999999993618 0.0
10.0 5.899999999993771 0.0
10.0 5.999999999993922 0.0
10.0 6.099999999994074 0.0
10.0 6.199999999994227 0.0
10.0 6.299999999994378 0.0
10.0 6.39999999999453 0.0
10.0 6.499999999994682 0.0
10.0 6.599999999994833 0.0
10.0 6.699999999994986 0.0
10.0 6.799999999995138 0.0
10.0 6.899999999995289 0.0
10.0 6.999999999995442 0.0
10.0 7.099999999995594 0.0
10.0 7.199999999995747 0.0
10.0 7.299999999995897 0.0
10.0 7.39999999999605 0.0
10.0 7.499999999996202 0.0
10.0 7.599999999996353 0.0
10.0 7.699999999996505 0.0
10.0 7.799999999996658 0.0
10.0 7.899999999996808 0.0
10.0 7.999999999996962 0.0
10.0 8.099999999997113 0.0
10.0 8.199999999997265 0.0
10.0 8.299999999997418 0.0
10.0 8.399999999997569 0.0
10.0 8.499999999997721 0.0
10.0 8.599999999997873 0.0
10.0 8.699999999998024 0.0
10.0 8.799999999998176 0.0
10.0 8.899999999998329 0.0
10.0 8.99999999999848 0.0
10.0 9.099999999998634 0.0
10.0 9.199999999998786 0.0
10.0 9.299999999998937 0.0
10.0 9.399999999999089 0.0
10.0 9.499999999999241 0.0
10.0 9.599999999999392 0.0
10.0 9.699999999999545 0.0
10.0 9.799999999999697 0.0
10.0 9.899999999999848 0.0
9.897110148790565 10.0 0.0
9.784692609918244 10.0 0.0
9.66186512498486 10.0 0.0
9.527663687265571 10.0 0.0
9.381035096339392 10.0 0.0
9.220828555768257 10.0 0.0
9.045786767736512 10.0 0.0
8.854535961160305 10.0 0.0
8.645575169391027 10.0 0.0
8.417264413847017 10.0 0.0
8.167811885740178 10.0 0.0
7.895259826295246 10.0 0.0
7.597469242951631 10.0 0.0
7.272102969379938 10.0 0.0
6.916607540131873 10.0 0.0
6.528192895511704 10.0 0.0
6.103810708667616 10.0 0.0
5.640130319512691 10.0 0.0
5.13351278094435 10.0 0.0
4.579982132668816 10.0 0.0
3.975193910361222 10.0 0.0
3.314401822869852 10.0 0.0
2.592419885437257 10.0 0.0
1.803581725058137 10.0 0.0
0.9416964895740705 10.0 0.0
0.0 9.00010000000243 0.0
0.0 8.000200000005481 0.0
0.0 7.000300000005135 0.0
0.0 6.000400000002569 0.0
0.901790731451151 5.000409820926855 0.0
1.657200899774397 5.000334279910023 0.0
2.289991063707192 5.000271000893629 0.0
2.820065163538221 5.000217993483646 0.0
3.264096435579811 5.000173590356442 0.0
3.636051481595835 5.00013639485184 0.0
3.947629914072366 5.000105237008593 0.0
4.208632181002628 5.0000791367819 0.0
4.427267949625672 5.000057273205037 0.0
4.610414277633563 5.000038958572237 0.0
4.763831845154243 5.000023616815485 0.0
4.892346298799659 5.00001076537012 0.0
4.892346298799748 4.99998923462988 0.0
4.763831845154455 4.999976383184515 0.0
4.610414277633943 4.999961041427763 0.0
4.427267949626277 4.999942726794963 0.0
4.208632181003523 4.9999208632181 0.0
3.94762991407365 4.999894762991407 0.0
3.636051481597624 4.99986360514816 0.0
3.264096435582253 4.999826409643559 0.0
2.820065163541503 4.999782006516354 0.0
2.289991063711534 4.999728999106371 0.0
1.657200899778495 4.999665720089978 0.0
0.9017907314530094 4.999590179073145 0.0
0.0 3.999600000002013 0.0
0.0 2.999700000005187 0.0
0.0 1.99980000000512 0.0
0.0 0.9999000000025537 0.0
9.897889398521345 2.93573355845387 0.0
9.906568249974548 7.060009441434234 0.0
9.913122631074113 3.64016132281653 0.0
9.922462129543863 6.354535290629151 0.0
9.917693659967533 4.354211663134567 0.0
9.909873057440208 5.637584487339942 0.0
9.914183254994697 4.950672966925282 0.0
9.913885043715895 7.666887930262611 0.0
9.91009668007573 2.351889069770817 0.0
9.905135696074536 8.138152454502785 0.0
9.913397459621809 1.849999999997262 0.0
7.099302372137626 0.297750452375005 0.0
7.095143729410097 9.700359990366296 0.0
4.942912558701401 5.095838627899509 0.0
4.315009232304429 5.165022115481685 0.0
4.946182472483878 4.906763777264103 0.0
4.317967462990024 4.825955043772673 0.0
9.916390871492647 8.64999999999792 0.0
9.921504649680616 1.368376469890358 0.0
8.292538149791614 0.206877570318844 0.0
8.292538149793597 9.793122429681448 0.0
5.884594439766573 9.587645267048616 0.0
5.794826292691579 0.3794853783929359 0.0
9.913397459621425 9.049999999998557 0.0
9.908526577714177 0.9568239351922434 0.0
3.456851160380649 5.315740054130451 0.0
3.457889657868442 4.707121019609468 0.0
8.945214200703926 0.1503383337970344 0.0
8.950161364448409 9.8413906539257 0.0
9.913862335499305 4.055887885208452 0.0
9.916697353372683 4.650158482607802 0.0
9.919076340414442 6.049999999994006 0.0
9.906994308667635 5.25749687748192 0.0
9.917490342358025 6.655979201891897 0.0
9.915757520293784 7.343848891656911 0.0
9.910049507471042 3.363474386285078 0.0
9.914471988502868 2.647400064832979 0.0
9.91474124160965 9.337490423485129 0.0
9.916971008170838 0.6499999999994355 0.0
4.307157269264427 9.509674045029644 0.0
4.331527375865619 0.4401616696422582 0.0
9.45434939180249 9.878397030523757 0.0
9.457696120412969 0.1270877537061785 0.0
2.555070293622606 5.422044496190925 0.0
2.566232917480916 4.608001224030952 0.0
3.026511860837692 9.332320638257093 0.0
2.945561971800619 0.5895662714727601 0.0
7.7395404387124 0.2511088946967771 0.0
7.736379255744154 9.745848826372828 0.0
4.687135269408529 5.122111433928926 0.0
4.688420821504113 4.871895064967488 0.0
9.910554884115975 0.3448356354522978 0.0
9.911230082250466 9.65764729394159 0.0
9.921953841410854 6.851023993342036 0.0
9.912065178606017 5.448170483544033 0.0
9.911660025326261 3.861846960030188 0.0
9.914847467973438 3.14501593945607 0.0
9.913397459621425 5.849999999993703 0.0
9.913397459621425 7.849999999996735 0.0
9.906916878988277 2.15455769998631 0.0
9.913397459621425 8.349999999997479 0.0
9.909472363117661 1.640528221515488 0.0
9.913987325695956 1.152857110636247 0.0
9.913397459621425 8.849999999998241 0.0
0.9100099990995943 2.614215977520411 0.0
0.8395284981715456 7.451196254860987 0.0
9.723278867451556 9.898135916635193 0.0
9.723316350887044 0.09841820909386662 0.0
1.385819164827588 4.454539963646463 0.0
1.338343629665047 5.523111536005823 0.0
1.377179700550677 0.6809168304959698 0.0
1.418060461092743 9.285896715136046 0.0
9.91268220142518 0.1457914080939694 0.0
9.906737126737994 9.845745933882352 0.0
0.7108351382691361 6.537941170074089 0.0
1.527735020267026 6.915620208855231 0.0
1.630993885659103 7.838271825205868 0.0
2.232760943566823 7.370850737296832 0.0
2.243414218068206 6.688299277952821 0.0
2.779655053105118 7.021588754814074 0.0
2.80227799359795 7.632420170547022 0.0
3.282022065908813 7.305859666021318 0.0
3.327597298795347 7.857554136825748 0.0
3.743210251018715 7.549183328204379 0.0
3.716353232200752 7.062036086888612 0.0
4.111978858674101 7.27497101169417 0.0
4.104192177581432 6.879858986267289 0.0
4.436230765617037 7.045693351607117 0.0
4.430360014817357 6.703971783962796 0.0
4.732390145036301 6.849841042423394 0.0
5.056161327708878 5.095276573498806 0.0
5.111586796021131 4.999081142133581 0.0
5.169267363407189 5.09444870412406 0.0
5.223795108752053 4.996986220359468 0.0
5.281480803887719 5.092780870372803 0.0
5.335670761900611 4.994887492556936 0.0
5.393485214772442 5.090486192743301 0.0
5.447323082877892 4.992601527033996 0.0
5.505243219343024 5.087953380710069 0.0
5.558739102026105 4.990287787962959 0.0
5.616491581184779 5.085335255235766 0.0
5.669852346908056 4.9879269227514 0.0
5.727502713908907 5.082679981817038 0.0
5.780766004135139 4.988313988715834 0.0
5.838244881129535 5.080480568766611 0.0
5.891357695677371 4.986433849408193 0.0
5.948696036767613 5.077969900389505 0.0
6.001601341641615 4.981313698556656 0.0
6.058851024265095 5.074871552128682 0.0
6.111614020704875 4.978360695880202 0.0
6.168801161530775 5.072044953270978 0.0
6.221368818778567 4.975825765213497 0.0
6.278268309066882 5.066182320461055 0.0
6.330814273567539 4.972837984645718 0.0
6.387565032421376 5.062889771971895 0.0
6.437476667631405 4.971693683589553 0.0
[...]
POINT_DATA 2538
VECTORS disp float
1.3037677086546713e-11 2.1529341690245382e-11 0.0
6.282596619664236e-12 -1.520018998156635e-11 0.0
0.0016999999997895114 3.3187232202342083e-12 0.0
0.001699999976624126 -5.3627682120882055e-11 0.0
0.0007468598184903953 0.0003561179241526573 0.0
0.0013064791925699584 7.2057732257630025e-6 0.0
0.0009509411872702804 -3.680064512666377e-5 0.0
-1.321057220935837e-12 -3.664299158628291e-12 0.0
1.978910026546257e-12 1.1647692905672708e-12 0.0
1.1620294015565117e-12 -9.699835826859394e-13 0.0
1.101553421217826e-12 -7.264274545380361e-13 0.0
5.775036265016183e-13 -6.843494443261189e-13 0.0
6.188418684003951e-13 -1.004560879990409e-12 0.0
4.576109680374405e-13 -1.0757491884432877e-12 0.0
3.8139170786082684e-13 -1.4084049415390647e-12 0.0
2.1313263959634586e-13 -1.7208386801244065e-12 0.0
3.891362323337889e-13 -2.1504285348173803e-12 0.0
3.7830171989269094e-13 -2.5049166618981828e-12 0.0
4.715156508376807e-13 -2.842162521727581e-12 0.0
5.599291964770509e-13 -3.1478468646721815e-12 0.0
5.636072044193598e-13 -3.270600926630573e-12 0.0
7.355646613118235e-13 -3.566258051991038e-12 0.0
7.184798557053354e-13 -3.5921566733705435e-12 0.0
7.610604359805744e-13 -3.814002917431749e-12 0.0
8.852281946987376e-13 -3.951075868916236e-12 0.0
8.532420312644965e-13 -4.064521196312932e-12 0.0
9.144454973850141e-13 -4.257233369013318e-12 0.0
1.009156069080196e-12 -4.460808684737313e-12 0.0
1.0940704868699894e-12 -4.70024579611854e-12 0.0
1.034967603742835e-12 -5.020308978301459e-12 0.0
1.6101952924405774e-12 -5.8508035402643925e-12 0.0
4.116710677240904e-13 -4.597444473302916e-12 0.0
2.4122137955660313e-5 -1.3428192406681317e-5 0.0
4.2679086922895696e-5 -2.3765006231573194e-5 0.0
6.101682873239301e-5 -3.294858200960775e-5 0.0
7.845963114742881e-5 -4.152494831226487e-5 0.0
9.503308849542545e-5 -4.961195044306538e-5 0.0
0.00011114400780760372 -5.7528396953125395e-5 0.0
0.00012711994371499181 -6.50638839211255e-5 0.0
0.00014264051823566397 -7.239707356707393e-5 0.0
0.00015790177469662104 -7.96127025221145e-5 0.0
0.0001729885941781546 -8.659692587235102e-5 0.0
0.00018782660786867446 -9.349804134745917e-5 0.0
0.0002025847155505747 -0.00010024352839169109 0.0
0.00021722800233225817 -0.00010680468915450106 0.0
0.000231790640618726 -0.00011327417936942455 0.0
0.000246317937940019 -0.00011961027179977995 0.0
0.00026064785346512645 -0.00012573630378095175 0.0
0.0002749770744501834 -0.0001317475900625157 0.0
0.0002893706137061854 -0.00013754611510692288 0.0
0.00030371321525009905 -0.00014320905615451966 0.0
0.0003180609410848778 -0.00014876458503601726 0.0
0.0003324442430982257 -0.00015420759670984094 0.0
0.0003468068647012443 -0.00015956041663015558 0.0
0.00036127387308433135 -0.00016479704124725428 0.0
0.0003756434988238784 -0.00016991867214357292 0.0
0.00039018273352315735 -0.0001749245538340662 0.0
0.00040462237312456325 -0.00017980093347420736 0.0
0.0004191309635434554 -0.00018460705919556952 0.0
0.00043362845845501866 -0.00018919956019647263 0.0
0.00044834683975183585 -0.00019370926316771852 0.0
0.0004628628369530088 -0.0001981164067635077 0.0
0.0004775661904947133 -0.00020235955459265776 0.0
0.0004923187220631262 -0.00020636809101629553 0.0
0.0005071791928779535 -0.00021017199748044844 0.0
0.0005219386518146588 -0.0002136006581297298 0.0
0.0005369975743427568 -0.0002168981812067526 0.0
0.0005518991407284912 -0.00021996456205681077 0.0
0.0005666414848181371 -0.0002230385480137224 0.0
0.0005816558113365423 -0.00022594975195262265 0.0
0.0005966423926255449 -0.00022885104050571493 0.0
0.0006119422512168486 -0.00023174327126141656 0.0
0.000627656728765393 -0.00023461878766791561 0.0
0.0006441057987666933 -0.00023784539480355623 0.0
0.0006609614498689211 -0.00024104115370994915 0.0
0.0006773665607087741 -0.0002448736986404528 0.0
0.0006942192211482462 -0.00024809986310490764 0.0
0.0007104970321166263 -0.00025164636987883417 0.0
0.0007269259314360717 -0.0002552170519613382 0.0
0.0007441865424664856 -0.0002581163179151847 0.0
0.0007609470700667177 -0.00026177412356732547 0.0
0.0007797647939815852 -0.00026455291684727023 0.0
0.0007976686146509799 -0.00026787332461120626 0.0
0.0008156375212465836 -0.0002712245751345929 0.0
0.0008321746600565755 -0.0002748317645708934 0.0
0.0008491591349485542 -0.0002777753160963763 0.0
0.0008644766761842297 -0.00028083419247335875 0.0
0.000880578508760287 -0.0002835344821201957 0.0
0.0008961585676104268 -0.00028592658707187504 0.0
0.0009118740000184123 -0.00028761150859036634 0.0
0.0009277517188957362 -0.00028910042810717794 0.0
0.0009439147674512913 -0.00029022167803833274 0.0
0.0009601843987118142 -0.0002913468565205275 0.0
0.000976813864837583 -0.00029228142382098403 0.0
0.000994196805642016 -0.000293189313419684 0.0
0.0010119402613284066 -0.0002937600730885012 0.0
0.0010303810459200724 -0.0002942963212327484 0.0
0.0010496354325525141 -0.0002947413686111367 0.0
0.0010683447388680513 -0.0002950290026978904 0.0
0.0010862553967934145 -0.00029529669633571426 0.0
0.0011036857499539825 -0.0002952843696792662 0.0
0.0011212203095190255 -0.00029485177808224723 0.0
0.001138117996366704 -0.00029361979503118824 0.0
0.0011554255058751858 -0.00029152072519926075 0.0
0.001171980640106624 -0.0002888447341342295 0.0
0.001188362415505936 -0.00028577201358017106 0.0
0.0012054953024852855 -0.0002823374919743986 0.0
0.0012217363275388124 -0.00027930635813251496 0.0
0.001237930465821871 -0.000276243726875239 0.0
0.0012535920276632627 -0.00027265010360892324 0.0
0.0012697462972998555 -0.00026862194301730793 0.0
0.0012850402922459563 -0.00026390502925237574 0.0
0.001301792931964884 -0.00025933088591984237 0.0
0.0013179434349186638 -0.00025474587811943287 0.0
0.0013350550355929617 -0.00025092255460359606 0.0
0.0013523185751599292 -0.0002463735875638384 0.0
0.001368143972826195 -0.0002411445016279575 0.0
0.0013838598218090799 -0.0002352929871789427 0.0
0.0014003756382183201 -0.0002277913996858232 0.0
0.0014167662565705342 -0.00021896038969570326 0.0
0.0014333554636608878 -0.00020955059044221994 0.0
0.0014507480441695575 -0.00019940728641884271 0.0
0.0014689547403920432 -0.00018784678156331242 0.0
0.001487469941208801 -0.00017501106100933388 0.0
0.0015066655660792663 -0.00016110292048240882 0.0
0.0015270649997264749 -0.00014603273536782592 0.0
0.0015493344700886033 -0.0001294736871270679 0.0
0.0015731418164315924 -0.00011130507769615686 0.0
0.001598827305035232 -9.106948773714309e-5 0.0
0.0016281200783984028 -6.766502998894209e-5 0.0
0.00165996648505842 -3.9839530132767474e-5 0.0
0.0016999999993336577 -3.961792905073121e-12 0.0
0.0016999999958587336 -7.296114952034137e-12 0.0
0.0016999999985453328 -1.5550147417661264e-12 0.0
0.0016999999978473495 -1.5357391025727364e-12 0.0
0.0016999999983016289 -6.222845700530628e-13 0.0
0.0016999999983135397 -1.0863112690017122e-13 0.0
0.0016999999983229458 1.5619005993220015e-13 0.0
0.0016999999984699669 3.414147183334369e-13 0.0
0.0016999999984788187 4.995726559973334e-13 0.0
0.0016999999985707129 5.634774267595276e-13 0.0
0.0016999999986342092 6.181465397855785e-13 0.0
0.001699999998730134 7.399206419005208e-13 0.0
0.0016999999987349587 8.67027729151333e-13 0.0
0.001699999998762288 1.0325081234924197e-12 0.0
0.0016999999987589811 1.1987349500384093e-12 0.0
0.001699999998757612 1.3851639304762523e-12 0.0
0.0016999999987488976 1.5532957148094202e-12 0.0
0.001699999998710561 1.7753760716148512e-12 0.0
0.0016999999988003196 1.9167516526692254e-12 0.0
0.0016999999987526199 2.0383189581196723e-12 0.0
0.0016999999988278592 2.0535450664995615e-12 0.0
0.0016999999988470793 1.9318327600917903e-12 0.0
0.001699999999070368 1.7780491952082722e-12 0.0
0.0016999999994299975 1.9796718385674326e-12 0.0
0.0016999999996185782 1.4338170075870738e-12 0.0
0.0015946159271318686 3.26588988204784e-5 0.0
0.0015052480590304678 4.382365615697584e-5 0.0
0.0014251485624010307 3.4651164806326495e-5 0.0
0.001348562081923106 1.7547845642219762e-5 0.0
0.0012970264267329094 -4.0809464066210435e-5 0.0
0.0012874782283167432 -7.034236789333995e-5 0.0
0.0012803499247832759 -0.00010298819580304843 0.0
0.001265777925553205 -0.00012300551778403137 0.0
0.0012458888651468475 -0.00013396311320545748 0.0
0.001221430306378127 -0.00013751232053922627 0.0
0.0011932445144619325 -0.00013596024026122486 0.0
0.001163096547953077 -0.0001275524046978777 0.0
0.001130601766780553 -0.00011558490732525305 0.0
0.0010965602565870967 -0.00010097432649046338 0.0
0.0010589623675762863 -8.401414716581756e-5 0.0
0.0010144372322541601 -6.488510491163708e-5 0.0
0.0009122184553234911 3.7709009402569748e-6 0.0
0.0008835602849004273 2.6704304428376354e-5 0.0
0.0008588169079759357 4.47912782853752e-5 0.0
0.0008363116159882318 6.193319936829728e-5 0.0
0.000814975721035311 7.874313911378629e-5 0.0
0.0007955394605834931 9.599317950998403e-5 0.0
0.0007774916939394515 0.00011459436544443336 0.0
0.0007616909656713557 0.0001331355955308772 0.0
0.0007501279228536915 0.0001570525884470887 0.0
0.0007403832587206446 0.0001813284561438834 0.0
0.0007403757581876604 0.00022284980651726422 0.0
0.0007374222554040847 0.0002707216516942284 0.0
0.0006700334267050927 0.00035807287496455607 0.0
0.0005760236672408958 0.00034995091806424975 0.0
0.0004496811374246009 0.0003018140240535168 0.0
0.00027404358043454094 0.0002031705547607755 0.0
0.0004509790188559049 -0.0001875225775221161 0.0
0.0011326114578327864 -0.00027792096845333757 0.0
0.0005563534246141074 -0.00021344648763439313 0.0
0.0010038369848180708 -0.00028159495040542767 0.0
0.0006675327960109917 -0.0002360417266636258 0.0
0.0008848215987839454 -0.00027217364384476424 0.0
0.0007689995828339925 -0.0002527673399181223 0.0
0.001235032085770936 -0.0002614464315431047 0.0
0.0003660201776712681 -0.00016109191159761763 0.0
0.001311269337801607 -0.00023659923967748634 0.0
0.00029361304888470506 -0.00013413221417666118 0.0
2.98375440437259e-5 -7.628980991126798e-6 0.0
0.0016603340292313748 6.266986478043231e-7 0.0
0.001002757000753948 -3.6631615391384866e-5 0.0
0.0011302337737384854 -0.00010631121263875555 0.0
0.0008816715773285395 -4.383833020856496e-6 0.0
0.0007974144162292334 7.911904662321798e-5 0.0
0.0013963078954969787 -0.0002076446592221751 0.0
0.00022415463945436032 -0.00010556397760258561 0.0
2.5100178186773483e-5 -6.964678526885254e-6 0.0
0.001671519292871742 -1.251401968786889e-6 0.0
0.0016443276991076243 3.421136533117024e-6 0.0
3.434320859214379e-5 -3.7090960412622636e-6 0.0
0.0014661462845371475 -0.00016724191907613122 0.0
0.0001626348341156259 -7.69072137018577e-5 0.0
0.0012176658173845302 -0.00011964928164567101 0.0
0.0007334884008257576 0.0001296336544987322 0.0
2.0034785094780262e-5 -5.561565356099022e-6 0.0
0.0016768657292592867 -1.7044891383112888e-6 0.0
0.0006190259181422608 -0.0002257573457565622 0.0
0.0007167039102228257 -0.00024553291641731277 0.0
0.0009516023214151142 -0.00027921589542520005 0.0
0.0008226189934154057 -0.0002614722483784251 0.0
0.0010601911724494569 -0.00028149950966997647 0.0
0.001181679155358383 -0.00027272087226363096 0.0
0.0005150179216079451 -0.00020461616844026504 0.0
0.00040909132050558127 -0.00017587686264423647 0.0
0.0015221732860860367 -0.00012938077753951404 0.0
0.0001154028363690272 -5.4810901850414245e-5 0.0
0.001633184366517835 5.417801273677865e-6 0.0
4.8397502166487406e-5 1.4649660405856028e-6 0.0
0.0016810841657164753 -3.213243892169882e-6 0.0
1.8630671108425094e-5 -5.507269204244885e-6 0.0
0.0012727410004400757 -0.00010212556165526844 0.0
0.0007065311612833773 0.00017065611339486006 0.0
0.001614825801493554 4.691791192131026e-6 0.0
7.962313747079521e-5 5.8913667590435335e-6 0.0
2.8071586691866936e-5 -7.76386713185551e-6 0.0
0.0016660181252859717 -5.855831029420462e-7 0.0
0.001067279812373903 -7.747253524996968e-5 0.0
0.0008418108530422781 4.36915906714628e-5 0.0
6.444514533005573e-5 -2.9300604206632555e-5 0.0
0.0015981189959034241 -7.291225478681806e-5 0.0
0.0010953770383112574 -0.00028211237208699706 0.0
0.0008545289263218553 -0.00026816209703523825 0.0
0.0005893548698394566 -0.00021979112194747422 0.0
0.0004823629441706321 -0.00019726562026946021 0.0
0.0009189714643793971 -0.0002762044059355691 0.0
0.0012647554330508567 -0.0002540981951341462 0.0
0.00033732231325492995 -0.0001505530463746024 0.0
0.0013463049985651457 -0.0002267321688207397 0.0
0.00026318146511926415 -0.00012156824906961525 0.0
0.000192137318191804 -9.086961816804788e-5 0.0
0.0014303180425824732 -0.00018872324681763538 0.0
0.0004935445787277467 0.0001912538439516481 0.0
0.0014438379463671983 -1.0059442948752543e-7 0.0
0.0016806908085297495 -6.912001341260985e-6 0.0
1.5668703729955467e-5 -5.079525396925114e-6 0.0
0.000696522066323657 0.00023996608165132097 0.0
0.0013058983099021352 -5.1742015450385566e-5 0.0
0.00010761590663196379 1.5584634559423787e-5 0.0
0.0016256546239084527 5.400257981674873e-6 0.0
2.8177512876746648e-5 -1.180225276018214e-5 0.0
0.0016545254142895883 -3.0198106809311048e-5 0.0
0.001374851799663523 -1.4307553779426589e-5 0.0
0.0013789161322927343 -2.699677784214062e-5 0.0
0.0014628875153013963 -8.323970974314011e-6 0.0
0.0013968332408057069 -2.2225152662674116e-5 0.0
0.0013318693128437388 -4.570638273669932e-5 0.0
0.0013377631480780555 -3.351773086122728e-5 0.0
0.0014052716873206791 -1.4261696333808754e-5 0.0
0.0013483100069922606 -1.8517956071261093e-5 0.0
0.0014177408260149015 -4.7063240671398954e-6 0.0
0.0013642704913803248 -4.794865403681654e-6 0.0
0.0013004608500623701 -1.832624621623338e-5 0.0
0.0013148210189651906 -2.8553760917187833e-6 0.0
0.0012605299111221342 -1.3416460959688119e-5 0.0
0.0012721381081356648 4.347490662733038e-7 0.0
0.0012240892807953777 -7.4740673767130285e-6 0.0
0.0012353340967651406 4.770876272210188e-6 0.0
0.0009851421534514463 -3.7813747435959864e-5 0.0
0.0009384684000239148 -4.7871212480263964e-5 0.0
0.0009668497497925474 -4.278427526786681e-5 0.0
0.0009265661902214973 -5.3024300574477104e-5 0.0
0.0009524190887706315 -4.843134248850064e-5 0.0
0.0009166757019411049 -5.713548974230853e-5 0.0
0.0009396635650561535 -5.210509175051042e-5 0.0
0.0009069824433606754 -6.007227394347611e-5 0.0
0.0009279429175813056 -5.497076626911178e-5 0.0
0.0008975902480789673 -6.25972890494361e-5 0.0
0.0009171903328868796 -5.7478813206205534e-5 0.0
0.0008887479129703533 -6.459843785520178e-5 0.0
0.0009073684893973775 -5.9934312128209156e-5 0.0
0.0008811054273054652 -6.610233571438873e-5 0.0
0.0008982817215800626 -6.154749881102745e-5 0.0
0.0008731274169605914 -6.748556343674555e-5 0.0
0.0008897155588205894 -6.319845424609346e-5 0.0
0.0008648585861840109 -6.903281348338478e-5 0.0
0.0008816557035180844 -6.491100790406305e-5 0.0
0.0008576997070988757 -7.012449977077975e-5 0.0
0.0008742644396416143 -6.632200406029566e-5 0.0
0.0008510085992279308 -7.123330703488325e-5 0.0
0.0008666737820891267 -6.778576303251693e-5 0.0
0.0008444327969194111 -7.255455265073823e-5 0.0
0.0008599510082407398 -6.947893297600633e-5 0.0
0.0008387025612252341 -7.400396712037946e-5 0.0
0.0008536183457644146 -7.124080188831206e-5 0.0
0.0008321090661629612 -7.581134765874807e-5 0.0
0.000847356762975552 -7.329565948504957e-5 0.0
0.0008217634824589149 -7.860045472262717e-5 0.0
0.0008425579336011431 -7.541223568971112e-5 0.0
0.0008205080167898464 -7.9849018346606e-5 0.0
0.0008370388118870187 -7.778114573915901e-5 0.0
0.0008160117293557052 -8.212332590848713e-5 0.0
0.0008320260330700725 -8.045196309620579e-5 0.0
0.0008123441349148201 -8.450308330511747e-5 0.0
0.000827174618010665 -8.32864269938129e-5 0.0
0.0008079798865433453 -8.725547897538669e-5 0.0
0.0008758641491745696 -6.552637256448985e-5 0.0
0.0008225268167023903 -8.637764116676153e-5 0.0
0.0008403005738277811 -7.363225578453734e-5 0.0
0.0008000513234578822 -8.298383752533842e-5 0.0
0.0008024930271191779 -9.045652271626731e-5 0.0
0.0008179791096110056 -8.977100377161962e-5 0.0
0.000797162103612432 -9.396539221976403e-5 0.0
0.0007821868349575261 -9.422377196227169e-5 0.0
0.0007763774937658773 -9.778901222787214e-5 0.0
0.0008127498365583945 -9.363406233778616e-5 0.0
0.0008338425182212001 -8.919611027396637e-5 0.0
0.0008574110995373059 -7.335049474122057e-5 0.0
0.0008287926430394177 -9.337886460814655e-5 0.0
0.0008512707577582796 -8.831619777067878e-5 0.0
0.0008454249124404991 -9.323119990361473e-5 0.0
0.0007615647774915352 -9.785509482650273e-5 0.0
0.0007566665289427708 -0.00010113798167520637 0.0
0.0008685938511808306 -8.77760561462954e-5 0.0
0.0007407293952169222 -0.00010112608842521038 0.0
0.0007369338600848445 -0.00010433603134756651 0.0
0.0008632356350254495 -9.298088558283343e-5 0.0
0.0008854560973593745 -8.776260895105065e-5 0.0
0.0007197649781174973 -0.00010418966601347202 0.0
0.0007156001917703489 -0.00010739059429989417 0.0
0.0008807324872624829 -9.316172602966423e-5 0.0
0.0009035297187481938 -8.763916048462508e-5 0.0
0.000698896534453277 -0.00010695431104879003 0.0
0.0006945231638221086 -0.00011031049282930504 0.0
0.0008987148607299146 -9.35813761590689e-5 0.0
0.0009222029737219988 -8.760975323364922e-5 0.0
0.0006782790921716442 -0.0001093762520255698 0.0
0.0006727175743995877 -0.00011276654625339232 0.0
0.0009176657040241969 -9.392854853497389e-5 0.0
0.0009413648906033876 -8.765618447513402e-5 0.0
0.000655740049822393 -0.00011157335272802143 0.0
0.0006507550634516566 -0.00011499152728943902 0.0
0.0006323260121543198 -0.00011363845109884599 0.0
0.0006374961234252485 -0.00011029432800803341 0.0
0.0008925263736456395 -9.966034549494143e-5 0.0
0.0009367011413218614 -9.45192339043991e-5 0.0
0.0009610910300285045 -8.782582480489061e-5 0.0
0.0009664369244337713 -8.055118343965962e-5 0.0
0.0008878482624970119 -6.292760442511193e-5 0.0
0.0009872646487186151 -8.041529005340048e-5 0.0
0.0009931271490896205 -7.272953232411415e-5 0.0
0.0010150510687387078 -7.219102504536114e-5 0.0
0.0006291157656268407 -0.00011722170193370658 0.0
0.0006098122091785235 -0.00011525145207083076 0.0
0.0006472800274494549 -0.00011885097378565354 0.0
0.0009557034510969895 -9.5392853705404e-5 0.0
0.0006070799230896168 -0.00011889670512099325 0.0
0.0005872847488294963 -0.0001164645768327077 0.0
0.0009234004935980791 -5.4623583096606774e-5 0.0
0.0005848672156280379 -0.00011990360379083765 0.0
0.0005647037863489621 -0.00011711831141488357 0.0
0.0005625923830124381 -0.00012058170684820428 0.0
0.0005425001335689766 -0.00011724381396936596 0.0
0.0005440656184453848 -0.00011407025378614093 0.0
0.000519962671295864 -0.00011395644132523974 0.0
0.0005218662103137585 -0.00011069732727281403 0.0
0.0005380385331497019 -0.00012056505915766855 0.0
0.000495562257096113 -0.00011013160555109216 0.0
0.000497191456371987 -0.00010694846490569362 0.0
0.0005608353114223608 -0.00012446153034309152 0.0
0.0005399368260737651 -0.00012484708315561508 0.0
0.00047125241622866153 -0.00010573704423635053 0.0
0.0004716494686042591 -0.00010254962851452569 0.0
0.001021705275818673 -6.437000044225644e-5 0.0
0.0010449570545094907 -6.359577993384817e-5 0.0
0.0005592599254799365 -0.0001286559146621994 0.0
0.0005388641177579454 -0.00012894747741227258 0.0
0.0010519858296550572 -5.5572190627995406e-5 0.0
0.0010767981222245954 -5.4758752026802586e-5 0.0
0.0010684413054978332 -6.389389326302977e-5 0.0
0.0011011775708927377 -5.461448531332989e-5 0.0
0.0010933887071820437 -6.422817137533417e-5 0.0
0.0011270020750781306 -5.430446053574774e-5 0.0
0.0011209428191116418 -6.402072857001468e-5 0.0
0.0011564799788916045 -5.3151866818829503e-5 0.0
0.0011478013130256238 -6.34857700881316e-5 0.0
0.0011620176289912144 -4.425448729741505e-5 0.0
0.0011841562065051602 -5.286063381281203e-5 0.0
0.0011740292324138118 -6.363007134383568e-5 0.0
0.0005581687206907855 -0.0001331378198288948 0.0
0.00044390973967697346 -0.00010074361991505583 0.0
0.0004433870613437633 -9.725291998054026e-5 0.0
0.0011400692605574943 -7.493541824716237e-5 0.0
0.001165478661841672 -7.5356972937199e-5 0.0
0.0011994775624752422 -6.395031350521588e-5 0.0
0.0011335811794672848 -8.71894101112959e-5 0.0
0.0005384513806122612 -0.00013338996396204607 0.0
0.00119123801946718 -7.6037859635764e-5 0.0
0.0012249537220343355 -6.438125203038974e-5 0.0