# vtk DataFile Version 2.0
phase field modeling fracture
ASCII
DATASET UNSTRUCTURED_GRID
POINTS 2538 float
0.0 0.0 0.0
10.0 0.0 0.0
0.0 10.0 0.0
10.0 10.0 0.0
0.0 4.9995 0.0
0.0 5.0005 0.0
5.0 5.0 0.0
0.9416964895726688 0.0 0.0
1.803581725054446 0.0 0.0
2.592419885431098 0.0 0.0
3.314401822861676 0.0 0.0
3.975193910351406 0.0 0.0
4.579982132660152 0.0 0.0
5.133512780936812 0.0 0.0
5.640130319506143 0.0 0.0
6.103810708661955 0.0 0.0
6.528192895506818 0.0 0.0
6.916607540127679 0.0 0.0
7.272102969376355 0.0 0.0
7.597469242948583 0.0 0.0
7.895259826292669 0.0 0.0
8.167811885738017 0.0 0.0
8.417264413845215 0.0 0.0
8.645575169389538 0.0 0.0
8.854535961159101 0.0 0.0
9.045786767735546 0.0 0.0
9.220828555767493 0.0 0.0
9.38103509633881 0.0 0.0
9.527663687265145 0.0 0.0
9.661865124984566 0.0 0.0
9.784692609918062 0.0 0.0
9.897110148790482 0.0 0.0
10.0 0.09999999999992584 0.0
10.0 0.199999999999856 0.0
10.0 0.2999999999997771 0.0
10.0 0.3999999999996677 0.0
10.0 0.4999999999995511 0.0
10.0 0.5999999999994683 0.0
10.0 0.6999999999993983 0.0
10.0 0.7999999999993286 0.0
10.0 0.8999999999992587 0.0
10.0 0.9999999999991888 0.0
10.0 1.099999999999119 0.0
10.0 1.199999999999033 0.0
10.0 1.299999999998852 0.0
10.0 1.399999999998576 0.0
10.0 1.499999999998284 0.0
10.0 1.599999999997992 0.0
10.0 1.6999999999977 0.0
10.0 1.799999999997408 0.0
10.0 1.899999999997116 0.0
10.0 1.999999999996825 0.0
10.0 2.099999999996533 0.0
10.0 2.199999999996241 0.0
10.0 2.299999999995949 0.0
10.0 2.399999999995657 0.0
10.0 2.499999999995365 0.0
10.0 2.599999999995073 0.0
10.0 2.699999999994782 0.0
10.0 2.79999999999449 0.0
10.0 2.899999999994198 0.0
10.0 2.999999999993906 0.0
10.0 3.099999999993614 0.0
10.0 3.199999999993322 0.0
10.0 3.299999999993029 0.0
10.0 3.399999999992738 0.0
10.0 3.499999999992446 0.0
10.0 3.599999999992154 0.0
10.0 3.699999999991863 0.0
10.0 3.799999999991571 0.0
10.0 3.899999999991278 0.0
10.0 3.999999999991022 0.0
10.0 4.099999999991035 0.0
10.0 4.199999999991187 0.0
10.0 4.299999999991338 0.0
10.0 4.399999999991491 0.0
10.0 4.499999999991642 0.0
10.0 4.599999999991795 0.0
10.0 4.699999999991947 0.0
10.0 4.799999999992099 0.0
10.0 4.89999999999225 0.0
10.0 4.999999999992403 0.0
10.0 5.099999999992555 0.0
10.0 5.199999999992706 0.0
10.0 5.299999999992858 0.0
10.0 5.39999999999301 0.0
10.0 5.499999999993161 0.0
10.0 5.599999999993313 0.0
10.0 5.699999999993466 0.0
10.0 5.799999999993618 0.0
10.0 5.899999999993771 0.0
10.0 5.999999999993922 0.0
10.0 6.099999999994074 0.0
10.0 6.199999999994227 0.0
10.0 6.299999999994378 0.0
10.0 6.39999999999453 0.0
10.0 6.499999999994682 0.0
10.0 6.599999999994833 0.0
10.0 6.699999999994986 0.0
10.0 6.799999999995138 0.0
10.0 6.899999999995289 0.0
10.0 6.999999999995442 0.0
10.0 7.099999999995594 0.0
10.0 7.199999999995747 0.0
10.0 7.299999999995897 0.0
10.0 7.39999999999605 0.0
10.0 7.499999999996202 0.0
10.0 7.599999999996353 0.0
10.0 7.699999999996505 0.0
10.0 7.799999999996658 0.0
10.0 7.899999999996808 0.0
10.0 7.999999999996962 0.0
10.0 8.099999999997113 0.0
10.0 8.199999999997265 0.0
10.0 8.299999999997418 0.0
10.0 8.399999999997569 0.0
10.0 8.499999999997721 0.0
10.0 8.599999999997873 0.0
10.0 8.699999999998024 0.0
10.0 8.799999999998176 0.0
10.0 8.899999999998329 0.0
10.0 8.99999999999848 0.0
10.0 9.099999999998634 0.0
10.0 9.199999999998786 0.0
10.0 9.299999999998937 0.0
10.0 9.399999999999089 0.0
10.0 9.499999999999241 0.0
10.0 9.599999999999392 0.0
10.0 9.699999999999545 0.0
10.0 9.799999999999697 0.0
10.0 9.899999999999848 0.0
9.897110148790565 10.0 0.0
9.784692609918244 10.0 0.0
9.66186512498486 10.0 0.0
9.527663687265571 10.0 0.0
9.381035096339392 10.0 0.0
9.220828555768257 10.0 0.0
9.045786767736512 10.0 0.0
8.854535961160305 10.0 0.0
8.645575169391027 10.0 0.0
8.417264413847017 10.0 0.0
8.167811885740178 10.0 0.0
7.895259826295246 10.0 0.0
7.597469242951631 10.0 0.0
7.272102969379938 10.0 0.0
6.916607540131873 10.0 0.0
6.528192895511704 10.0 0.0
6.103810708667616 10.0 0.0
5.640130319512691 10.0 0.0
5.13351278094435 10.0 0.0
4.579982132668816 10.0 0.0
3.975193910361222 10.0 0.0
3.314401822869852 10.0 0.0
2.592419885437257 10.0 0.0
1.803581725058137 10.0 0.0
0.9416964895740705 10.0 0.0
0.0 9.00010000000243 0.0
0.0 8.000200000005481 0.0
0.0 7.000300000005135 0.0
0.0 6.000400000002569 0.0
0.901790731451151 5.000409820926855 0.0
1.657200899774397 5.000334279910023 0.0
2.289991063707192 5.000271000893629 0.0
2.820065163538221 5.000217993483646 0.0
3.264096435579811 5.000173590356442 0.0
3.636051481595835 5.00013639485184 0.0
3.947629914072366 5.000105237008593 0.0
4.208632181002628 5.0000791367819 0.0
4.427267949625672 5.000057273205037 0.0
4.610414277633563 5.000038958572237 0.0
4.763831845154243 5.000023616815485 0.0
4.892346298799659 5.00001076537012 0.0
4.892346298799748 4.99998923462988 0.0
4.763831845154455 4.999976383184515 0.0
4.610414277633943 4.999961041427763 0.0
4.427267949626277 4.999942726794963 0.0
4.208632181003523 4.9999208632181 0.0
3.94762991407365 4.999894762991407 0.0
3.636051481597624 4.99986360514816 0.0
3.264096435582253 4.999826409643559 0.0
2.820065163541503 4.999782006516354 0.0
2.289991063711534 4.999728999106371 0.0
1.657200899778495 4.999665720089978 0.0
0.9017907314530094 4.999590179073145 0.0
0.0 3.999600000002013 0.0
0.0 2.999700000005187 0.0
0.0 1.99980000000512 0.0
0.0 0.9999000000025537 0.0
9.897889398521345 2.93573355845387 0.0
9.906568249974548 7.060009441434234 0.0
9.913122631074113 3.64016132281653 0.0
9.922462129543863 6.354535290629151 0.0
9.917693659967533 4.354211663134567 0.0
9.909873057440208 5.637584487339942 0.0
9.914183254994697 4.950672966925282 0.0
9.913885043715895 7.666887930262611 0.0
9.91009668007573 2.351889069770817 0.0
9.905135696074536 8.138152454502785 0.0
9.913397459621809 1.849999999997262 0.0
7.099302372137626 0.297750452375005 0.0
7.095143729410097 9.700359990366296 0.0
4.942912558701401 5.095838627899509 0.0
4.315009232304429 5.165022115481685 0.0
4.946182472483878 4.906763777264103 0.0
4.317967462990024 4.825955043772673 0.0
9.916390871492647 8.64999999999792 0.0
9.921504649680616 1.368376469890358 0.0
8.292538149791614 0.206877570318844 0.0
8.292538149793597 9.793122429681448 0.0
5.884594439766573 9.587645267048616 0.0
5.794826292691579 0.3794853783929359 0.0
9.913397459621425 9.049999999998557 0.0
9.908526577714177 0.9568239351922434 0.0
3.456851160380649 5.315740054130451 0.0
3.457889657868442 4.707121019609468 0.0
8.945214200703926 0.1503383337970344 0.0
8.950161364448409 9.8413906539257 0.0
9.913862335499305 4.055887885208452 0.0
9.916697353372683 4.650158482607802 0.0
9.919076340414442 6.049999999994006 0.0
9.906994308667635 5.25749687748192 0.0
9.917490342358025 6.655979201891897 0.0
9.915757520293784 7.343848891656911 0.0
9.910049507471042 3.363474386285078 0.0
9.914471988502868 2.647400064832979 0.0
9.91474124160965 9.337490423485129 0.0
9.916971008170838 0.6499999999994355 0.0
4.307157269264427 9.509674045029644 0.0
4.331527375865619 0.4401616696422582 0.0
9.45434939180249 9.878397030523757 0.0
9.457696120412969 0.1270877537061785 0.0
2.555070293622606 5.422044496190925 0.0
2.566232917480916 4.608001224030952 0.0
3.026511860837692 9.332320638257093 0.0
2.945561971800619 0.5895662714727601 0.0
7.7395404387124 0.2511088946967771 0.0
7.736379255744154 9.745848826372828 0.0
4.687135269408529 5.122111433928926 0.0
4.688420821504113 4.871895064967488 0.0
9.910554884115975 0.3448356354522978 0.0
9.911230082250466 9.65764729394159 0.0
9.921953841410854 6.851023993342036 0.0
9.912065178606017 5.448170483544033 0.0
9.911660025326261 3.861846960030188 0.0
9.914847467973438 3.14501593945607 0.0
9.913397459621425 5.849999999993703 0.0
9.913397459621425 7.849999999996735 0.0
9.906916878988277 2.15455769998631 0.0
9.913397459621425 8.349999999997479 0.0
9.909472363117661 1.640528221515488 0.0
9.913987325695956 1.152857110636247 0.0
9.913397459621425 8.849999999998241 0.0
0.9100099990995943 2.614215977520411 0.0
0.8395284981715456 7.451196254860987 0.0
9.723278867451556 9.898135916635193 0.0
9.723316350887044 0.09841820909386662 0.0
1.385819164827588 4.454539963646463 0.0
1.338343629665047 5.523111536005823 0.0
1.377179700550677 0.6809168304959698 0.0
1.418060461092743 9.285896715136046 0.0
9.91268220142518 0.1457914080939694 0.0
9.906737126737994 9.845745933882352 0.0
0.7108351382691361 6.537941170074089 0.0
1.527735020267026 6.915620208855231 0.0
1.630993885659103 7.838271825205868 0.0
2.232760943566823 7.370850737296832 0.0
2.243414218068206 6.688299277952821 0.0
2.779655053105118 7.021588754814074 0.0
2.80227799359795 7.632420170547022 0.0
3.282022065908813 7.305859666021318 0.0
3.327597298795347 7.857554136825748 0.0
3.743210251018715 7.549183328204379 0.0
3.716353232200752 7.062036086888612 0.0
4.111978858674101 7.27497101169417 0.0
4.104192177581432 6.879858986267289 0.0
4.436230765617037 7.045693351607117 0.0
4.430360014817357 6.703971783962796 0.0
4.732390145036301 6.849841042423394 0.0
5.056161327708878 5.095276573498806 0.0
5.111586796021131 4.999081142133581 0.0
5.169267363407189 5.09444870412406 0.0
5.223795108752053 4.996986220359468 0.0
5.281480803887719 5.092780870372803 0.0
5.335670761900611 4.994887492556936 0.0
5.393485214772442 5.090486192743301 0.0
5.447323082877892 4.992601527033996 0.0
5.505243219343024 5.087953380710069 0.0
5.558739102026105 4.990287787962959 0.0
5.616491581184779 5.085335255235766 0.0
5.669852346908056 4.9879269227514 0.0
5.727502713908907 5.082679981817038 0.0
5.780766004135139 4.988313988715834 0.0
5.838244881129535 5.080480568766611 0.0
5.891357695677371 4.986433849408193 0.0
5.948696036767613 5.077969900389505 0.0
6.001601341641615 4.981313698556656 0.0
6.058851024265095 5.074871552128682 0.0
6.111614020704875 4.978360695880202 0.0
6.168801161530775 5.072044953270978 0.0
6.221368818778567 4.975825765213497 0.0
6.278268309066882 5.066182320461055 0.0
6.330814273567539 4.972837984645718 0.0
6.387565032421376 5.062889771971895 0.0
6.437476667631405 4.971693683589553 0.0
[...]
POINT_DATA 2538
VECTORS disp float
1.7339224247191836e-11 4.3147834415439104e-11 0.0
3.5356730434083894e-11 -9.637906342729169e-11 0.0
0.003999999986940941 3.373485017295514e-11 0.0
0.003999999962972404 -1.0206386933651071e-10 0.0
0.0013028293738094098 0.000538762861395908 0.0
0.0028877174544354274 0.0003117673062242191 0.0
0.001967495560722301 0.00011607556978968173 0.0
4.462032226730681e-12 3.3362039569033934e-12 0.0
8.311719504875838e-12 9.85362523890205e-12 0.0
7.493355735635267e-12 5.910231371462703e-12 0.0
7.264614832272587e-12 5.454428790969993e-12 0.0
6.7078450508987676e-12 3.987339853797698e-12 0.0
6.22079409169626e-12 2.7830038743318355e-12 0.0
5.772504462218546e-12 1.553532242177311e-12 0.0
5.421567388181915e-12 2.5503686101853093e-13 0.0
4.72625758024876e-12 -1.1694028521031056e-12 0.0
4.990856820396161e-12 -2.447077533451088e-12 0.0
4.791490338130663e-12 -3.9387118658305544e-12 0.0
4.819794814771055e-12 -5.539763373977518e-12 0.0
4.995592135811872e-12 -7.1468678235381366e-12 0.0
4.973418585865019e-12 -8.656611711068447e-12 0.0
5.2978906891879264e-12 -1.0467079108903437e-11 0.0
5.323909710923406e-12 -1.1978513764804748e-11 0.0
5.649712801299625e-12 -1.3769246535471675e-11 0.0
5.791151356157353e-12 -1.5788183409539757e-11 0.0
6.0643960647758086e-12 -1.76961428363047e-11 0.0
6.379368005864918e-12 -1.9992770108493348e-11 0.0
6.7857900572036384e-12 -2.2573853474660315e-11 0.0
7.497011775767403e-12 -2.572463779534717e-11 0.0
7.572750164032472e-12 -2.908715150308942e-11 0.0
1.0327229613333168e-11 -3.68566399280104e-11 0.0
4.586288340429978e-12 -3.366788930725918e-11 0.0
4.9981767227509356e-5 -6.588217383384607e-5 0.0
8.653324124837553e-5 -0.0001134792526011555 0.0
0.00012197035013081082 -0.00015491000430239995 0.0
0.00015587819443438244 -0.00019252600976409352 0.0
0.0001887132161507998 -0.00022747785462912318 0.0
0.00022114302112316605 -0.00026065736864769025 0.0
0.00025369863046100546 -0.0002922000360474188 0.0
0.0002860716753703746 -0.00032236357662710125 0.0
0.00031854326940069865 -0.0003514222469505107 0.0
0.0003511930318673802 -0.00037937939456015923 0.0
0.00038403767530346527 -0.0004064744760554156 0.0
0.0004173237477119104 -0.0004327156427399572 0.0
0.0004507992719256113 -0.000458102918788974 0.0
0.00048463046172370934 -0.0004828285853128853 0.0
0.0005190182985246765 -0.0005068449669977225 0.0
0.0005535885890997562 -0.0005301250844317456 0.0
0.0005885824603798786 -0.0005528067824562242 0.0
0.0006239897425880154 -0.0005747795115894143 0.0
0.0006597820956214951 -0.0005961674084555478 0.0
0.0006959770870975168 -0.0006169648235772279 0.0
0.000732619498815775 -0.0006371739137333662 0.0
0.0007696188453700991 -0.0006567807073294396 0.0
0.0008071969353109998 -0.0006758758528804037 0.0
0.0008449955254532422 -0.0006943476835363341 0.0
0.0008834195334879372 -0.0007122926690093003 0.0
0.0009220330863246226 -0.0007296170012469176 0.0
0.000961126836768443 -0.0007464247892937627 0.0
0.0010005429349763445 -0.0007626027164007506 0.0
0.0010405067944843328 -0.0007782847795860699 0.0
0.001080632627436486 -0.0007933745868595926 0.0
0.0011213008055839364 -0.0008079461906494073 0.0
0.0011622652356975043 -0.0008218923319446279 0.0
0.0012036261908554113 -0.0008352984756794954 0.0
0.0012452394929277676 -0.0008481043767627148 0.0
0.0012873512752711 -0.000860374762737194 0.0
0.0013295934529413715 -0.0008720033411362796 0.0
0.0013722120511896559 -0.0008830624107446103 0.0
0.001415062939526911 -0.0008934589109479438 0.0
0.001458214547384134 -0.0009032204064815342 0.0
0.001501597335217577 -0.0009124337672569019 0.0
0.001545178077526495 -0.0009209388895231126 0.0
0.0015890461904940912 -0.0009288944474741215 0.0
0.001633129471562469 -0.0009361652328153215 0.0
0.0016773322428590357 -0.0009428719086578007 0.0
0.00172175146712164 -0.0009488369248194669 0.0
0.001766152684762267 -0.0009542163951191454 0.0
0.0018107558050097143 -0.000958967176963984 0.0
0.0018553733547296667 -0.0009630062948234202 0.0
0.0019000339477616445 -0.0009664726938756025 0.0
0.00194484306703633 -0.0009692241511062905 0.0
0.0019892603624217953 -0.0009711702042551595 0.0
0.0020340991455006533 -0.0009725742422849157 0.0
0.0020779772100602877 -0.0009731551996484816 0.0
0.0021223213259574567 -0.0009731235652516026 0.0
0.002164583779345963 -0.0009719238793209226 0.0
0.002208451586037377 -0.0009701529665373515 0.0
0.0022507115659687223 -0.0009675943094548769 0.0
0.0022927659270092736 -0.0009636978632243451 0.0
0.002334800207021354 -0.0009590499842274562 0.0
0.0023768190973696385 -0.0009528249918856426 0.0
0.002418738275263797 -0.0009457067840621557 0.0
0.0024608665988753863 -0.0009371800607151311 0.0
0.0025033634529819633 -0.0009277446470703674 0.0
0.002545957503860722 -0.0009169776366843668 0.0
0.0025889809084700074 -0.0009053227769828729 0.0
0.0026320855321472357 -0.0008929532561011245 0.0
0.002674945309245354 -0.0008797350216343242 0.0
0.0027178269018773254 -0.0008659456779192297 0.0
0.0027607144867532567 -0.0008514323545664422 0.0
0.0028034938736307734 -0.0008362128136005837 0.0
0.0028459030866090735 -0.0008204466921798578 0.0
0.002888366127546022 -0.000803958935307897 0.0
0.0029303475883475563 -0.000786866281269549 0.0
0.002972063570298852 -0.0007693032999631754 0.0
0.0030136782898023164 -0.0007510067137712246 0.0
0.0030547646004662433 -0.0007322250285042897 0.0
0.003095653085291527 -0.0007128521548512357 0.0
0.003136167768869386 -0.0006928934202418512 0.0
0.003176470614311736 -0.000672346658587245 0.0
0.003216442887649502 -0.000651130613121325 0.0
0.0032561140871771197 -0.0006292798070909741 0.0
0.0032952765208167614 -0.0006068680866353608 0.0
0.003334223179138088 -0.0005838418665963956 0.0
0.003372927053269718 -0.000560112970895414 0.0
0.003411220307109234 -0.0005357131015986414 0.0
0.003449293745994343 -0.000510672838922725 0.0
0.003487259773670153 -0.00048479597348960506 0.0
0.0035248454994147127 -0.0004581160862701261 0.0
0.003562141968600834 -0.00043068493187516435 0.0
0.00359947168862177 -0.00040233095135590134 0.0
0.003636808344272449 -0.00037290340714611387 0.0
0.0036739381593480012 -0.00034233956258993594 0.0
0.00371096127554438 -0.00031059500394995916 0.0
0.0037481902636407067 -0.00027739655317100397 0.0
0.003786077964744879 -0.000242360114331821 0.0
0.0038241241230456734 -0.00020524490455414452 0.0
0.0038627699646707476 -0.00016519473800259528 0.0
0.0039037777001857876 -0.00012084058163764521 0.0
0.003945865258948168 -6.992108168374567e-5 0.0
0.003999999994817822 -3.1949465357004785e-11 0.0
0.003999999988758274 -3.536462602294448e-11 0.0
0.0039999999920348845 -2.462872507432377e-11 0.0
0.003999999992042388 -2.1810010250531106e-11 0.0
0.003999999992580065 -1.8517438749385515e-11 0.0
0.003999999992950612 -1.6045303020542447e-11 0.0
0.003999999993101375 -1.4140887467043949e-11 0.0
0.00399999999336748 -1.2425696380072387e-11 0.0
0.0039999999934614726 -1.0838255333926733e-11 0.0
0.0039999999936332796 -9.296544910118649e-12 0.0
0.003999999993923171 -8.048687371410942e-12 0.0
0.0039999999939420395 -6.4260829614521925e-12 0.0
0.003999999994098303 -5.210483441806618e-12 0.0
0.00399999999421454 -3.7916318455924835e-12 0.0
0.003999999994261837 -2.4345306240914844e-12 0.0
0.0039999999942459405 -9.931920173195302e-13 0.0
0.003999999994273014 4.2805203410384545e-13 0.0
0.003999999993736566 2.035959556535589e-12 0.0
0.003999999994109804 3.337108268934026e-12 0.0
0.003999999993225935 4.999691361334836e-12 0.0
0.003999999993215878 6.098976583714423e-12 0.0
0.003999999992889965 7.307030181689225e-12 0.0
0.003999999993150875 7.641740831465546e-12 0.0
0.003999999993010464 1.0509480331756866e-11 0.0
0.003999999996332653 4.6776529628813735e-12 0.0
0.0037031276311135382 0.00020751195875022676 0.0
0.0034454404022825633 0.00030175468638605655 0.0
0.0032122629240644318 0.0003343020653931352 0.0
0.003014070425146092 0.0003289617537610398 0.0
0.0028810268992036842 0.0001884811264055626 0.0
0.002860218144183877 0.00012471409693918576 0.0
0.0028132555129566942 9.866653803192882e-5 0.0
0.0027577493935749472 9.201473037095927e-5 0.0
0.002693674409592299 9.593362466348049e-5 0.0
0.0026251573123262273 0.00010231924084561536 0.0
0.002553163734573075 0.0001090740049790267 0.0
0.002478773710948971 0.00011716931218082908 0.0
0.0024004608912895063 0.0001237298004834958 0.0
0.002317454737408226 0.00012797247312478752 0.0
0.002225612218903445 0.00012921637588398619 0.0
0.002116038576370126 0.0001287569476449988 0.0
0.001827842960895763 0.0001557391949996481 0.0
0.0017295645848971672 0.00016844007610442222 0.0
0.0016486617673246845 0.00017377339896313868 0.0
0.0015783515613430686 0.00017744945290150207 0.0
0.0015148361308051066 0.0001809847019348364 0.0
0.0014575614808308443 0.00018532719302491582 0.0
0.001406297195281772 0.0001918641955533367 0.0
0.0013627934474117751 0.00020234367773095142 0.0
0.0013289462742736165 0.00022188776565451541 0.0
0.0013059989511893528 0.0002550944319862349 0.0
0.001298623295912435 0.0003121290550103087 0.0
0.0012986555059763736 0.0004005110191170977 0.0
0.0011530933903636162 0.0005507452460486963 0.0
0.0009354514485328946 0.000518279407998694 0.0
0.0006520355961533597 0.0004253379421585194 0.0
0.0003455240941337403 0.00027750234238058954 0.0
0.0010485064860238594 -0.0007453844775114287 0.0
0.002837048335416298 -0.0007823411568363343 0.0
0.0013422641939686453 -0.0008421082152617487 0.0
0.0025319365053848943 -0.0008829233703659316 0.0
0.0016541308873716967 -0.0009063736459132351 0.0
0.002226296824577053 -0.0009285391427342223 0.0
0.001921382595533877 -0.0009324228746386596 0.0
0.0030903924944244696 -0.0006808762249789807 0.0
0.0008204711627612615 -0.0006534461310267138 0.0
0.003280825708335234 -0.0005806899209388402 0.0
0.0006351847329900337 -0.0005562649263809885 0.0
6.570478380767938e-5 -1.2249897310100478e-5 0.0
0.0039324381821773564 -1.1465735303224356e-5 0.0
0.002136762526349607 0.00014768916611608186 0.0
0.002449132921553614 0.00014106533903034384 0.0
0.0017979185349480886 0.00016125521118735456 0.0
0.0015268219736503687 0.0001948068771432488 0.0
0.0034775361731522077 -0.00046422393973935934 0.0
0.00046720721546612837 -0.000449878531289211 0.0
4.565372297986762e-5 -2.219947667322759e-5 0.0
0.0039525461523719045 -1.944206413973983e-5 0.0
0.003903656132904365 2.8066912399303457e-6 0.0
8.817313823707098e-5 3.2296690374346024e-6 0.0
0.003628370654449137 -0.00035428636579552407 0.0
0.00032858231763020865 -0.0003394224894904879 0.0
0.002665477120530841 0.00012628711560243772 0.0
0.001354089259790028 0.00021020056433007278 0.0
3.422617889246738e-5 -2.410591390734375e-5 0.0
0.0039622516926972684 -2.2084794227717577e-5 0.0
0.0015223792323662835 -0.0008825397660644827 0.0
0.0017862782540909775 -0.0009225631533179942 0.0
0.00240167906660179 -0.0009091686115376478 0.0
0.0020592559290065035 -0.0009339850396237366 0.0
0.002662560431455552 -0.0008449129510670625 0.0
0.0029562733976121252 -0.0007403128044803226 0.0
0.0012250541082242119 -0.0008084961710363998 0.0
0.0009348719814120914 -0.0007062656219969481 0.0
0.003735626432098291 -0.00026628168352042217 0.0
0.00022896038002608423 -0.00025159254279831083 0.0
0.0038770801189110258 2.4582413102440093e-5 0.0
0.00011066107092724302 1.9938427205938076e-5 0.0
0.003968483875397002 -2.4947328217506017e-5 0.0
3.17662895665719e-5 -2.9417885994039727e-5 0.0
0.0027970459492082773 0.00012113936555471632 0.0
0.001263876385642715 0.00024555363701072214 0.0
0.003827444402465033 4.5928841874495956e-5 0.0
0.00015493968111970316 3.980043585055476e-5 0.0
5.5179123939543126e-5 -1.8584381651832008e-5 0.0
0.003942400141631726 -1.679135137858113e-5 0.0
0.0022936425961453738 0.00014985578767504423 0.0
0.001659586743018111 0.0001882772103324529 0.0
0.00012679676174585537 -0.00014548857471544536 0.0
0.0038590372984923164 -0.00015056893951685227 0.0
0.0027461557647914746 -0.0008206432419188777 0.0
0.002143828291987734 -0.0009350390970745752 0.0
0.0014377290189520552 -0.0008642414663003765 0.0
0.0011347544936555578 -0.0007816753571627393 0.0
0.0023167835271966425 -0.000919931048568461 0.0
0.00316483795530671 -0.0006447508801381064 0.0
0.0007460108708661234 -0.0006154370775749888 0.0
0.0033627495070953847 -0.0005361717419325697 0.0
0.0005603988017807682 -0.0005095069082358256 0.0
0.00039394439340062205 -0.0003935089198400466 0.0
0.0035533442589501638 -0.0004104977641302466 0.0
0.0007780716755638156 0.0002900326739803379 0.0
0.003316970870014861 0.00021963552822016821 0.0
0.003969314950149863 -2.9524098533257383e-5 0.0
2.763875719147311e-5 -3.0020754008318e-5 0.0
0.0012198427911355356 0.0003392759866870757 0.0
0.0029062098359389707 0.00016523760316160323 0.0
0.0001772807574234251 6.352730536246743e-5 0.0
0.003822545908693477 6.033427854429158e-5 0.0
5.53467266677983e-5 -6.530459917738471e-5 0.0
0.003937222908624287 -6.893993660106432e-5 0.0
0.0031045680203829642 0.00023979517998163772 0.0
0.0031723774197326784 0.00019532925074211213 0.0
0.003421362179142571 0.00015803400812276362 0.0
0.003279483620920042 0.000166191560046945 0.0
0.00308748444205478 0.00017915276379680547 0.0
0.0031577207056881725 0.00017317667010531454 0.0
0.003341179168823876 0.0001511141851934892 0.0
0.0032269287586798247 0.0001621442659914748 0.0
0.0033998344002965676 0.00013508502391644953 0.0
0.0032945932920382687 0.0001445555459110231 0.0
0.00313247079728275 0.00016718440438125154 0.0
0.003194743997098539 0.0001482855850557034 0.0
0.003055199605438389 0.0001661383631263659 0.0
0.0031056655556803473 0.00014563592544121517 0.0
0.0029785795985266413 0.00016072275581495386 0.0
0.003024147806944331 0.00013649865224523624 0.0
0.0020866733408637012 9.95566169156104e-5 0.0
0.0019628237546493966 7.929495654483702e-5 0.0
0.0020596994414332826 6.946100786988159e-5 0.0
0.0019590317806834527 5.4880561670696427e-5 0.0
0.0020438534625893297 4.644047812811891e-5 0.0
0.001957080704163561 3.51949446928137e-5 0.0
0.002033606877842676 2.686603404072188e-5 0.0
0.0019550611778129533 1.7048806269901104e-5 0.0
0.0020261224784368106 9.103303973416277e-6 0.0
0.0019533007541611036 1.7500087271194835e-7 0.0
0.0020204252294701553 -7.344540789316367e-6 0.0
0.0019519042358617706 -1.568922364906955e-5 0.0
0.0020160009649410286 -2.3335876996829845e-5 0.0
0.001952504129797955 -3.113747707265135e-5 0.0
0.002012523060323134 -3.8734786552902134e-5 0.0
0.001951471032098821 -4.630431063006284e-5 0.0
0.0020093479483084395 -5.377637785220545e-5 0.0
0.0019485337355212664 -6.120232688459567e-5 0.0
0.002006211381636147 -6.864612890799437e-5 0.0
0.0019470629254013298 -7.58972970962851e-5 0.0
0.002003570172476519 -8.344602669992413e-5 0.0
0.0019458466967682692 -9.058155013409083e-5 0.0
0.001999333623586107 -9.815088825180394e-5 0.0
0.0019443043112513882 -0.00010534800065727334 0.0
0.0019967641745239663 -0.00011298292513192439 0.0
0.0019438057490949266 -0.00011986706232611932 0.0
0.001994538718644619 -0.00012791987988118424 0.0
0.001939794798005703 -0.00013392776195731925 0.0
0.001991757955619511 -0.0001429632270855129 0.0
0.0019256109038647416 -0.0001491824472073812 0.0
0.001992528070306729 -0.00015851391031975585 0.0
0.0019367347073867105 -0.00016573729193470357 0.0
0.0019900045361142486 -0.00017414170119290555 0.0
0.0019372445326838834 -0.0001817859584149589 0.0
0.001988358675837546 -0.00019023264763123863 0.0
0.0019392202160833755 -0.00019801416057193435 0.0
0.0019864980756525348 -0.00020660282032121418 0.0
0.001938673746091956 -0.0002148370488627307 0.0
0.0018865162944458203 9.747531444657141e-6 0.0
0.0019846049847277907 -0.0002234437069296956 0.0
0.001889169796583839 -6.753728415512207e-5 0.0
0.0018759955408834859 -0.00016138378639434504 0.0
0.0019342315549279955 -0.0002318523361337064 0.0
0.0019823389188087393 -0.000240732375322419 0.0
0.0019298657885994577 -0.0002499495164119302 0.0
0.0018825421924920666 -0.0002393950195848781 0.0
0.0018769157535560243 -0.00025838135649432404 0.0
0.001978115595464083 -0.00025954862897785587 0.0
0.002031234642986806 -0.0002496620941913999 0.0
0.0020407175352898906 -0.0001658918693456328 0.0
0.002027307214225285 -0.00026903202247115324 0.0
0.0020836394172690136 -0.0002572744219180125 0.0
0.002077858353752993 -0.00027844155507991426 0.0
0.0018300898474486761 -0.0002473162818897974 0.0
0.001826365317064024 -0.00026595149495106614 0.0
0.002135894607679048 -0.00026562931319514216 0.0
0.001776554887856728 -0.0002542670556864327 0.0
0.00177588621551186 -0.00027383536403615 0.0
0.0021310529185677137 -0.00028706229242046174 0.0
0.0021872238013112173 -0.00027522538004317156 0.0
0.001722650724856449 -0.0002613419718077282 0.0
0.0017207187573448 -0.0002815108701808504 0.0
0.002183579528508227 -0.00029654273637015534 0.0
0.0022412765985088253 -0.00028398009219215173 0.0
0.00166896576972857 -0.0002684051236022394 0.0
0.0016665355713728735 -0.00028979795283543344 0.0
0.0022374737509655894 -0.00030642272358551533 0.0
0.002296658203715902 -0.0002925985528651599 0.0
0.001615679129060104 -0.0002743521706436754 0.0
0.0016096884320725392 -0.0002964181788759785 0.0
0.002293566270088675 -0.00031563655739245364 0.0
0.0023530155800508914 -0.0003010095792195561 0.0
0.0015571035084997547 -0.0002802982488031014 0.0
0.0015524990290379241 -0.00030364678277071237 0.0
0.0014968900039001223 -0.00028764452436054857 0.0
0.0015012003185144404 -0.000262918214249875 0.0
0.002228845244472607 -0.0003285699521652593 0.0
0.0023496307177051498 -0.0003249744015699967 0.0
0.002410208530980373 -0.00030926554593218024 0.0
0.002414572791575763 -0.0002846772521175916 0.0
0.00205340609716405 -9.142637308107447e-5 0.0
0.0024740104869351255 -0.0002924749410250396 0.0
0.002478877417885914 -0.0002669711970638448 0.0
0.0025401545555723422 -0.00027394351334187776 0.0
0.0014969387583865798 -0.00031289302222703896 0.0
0.0014388653883964607 -0.0002941846233572842 0.0
0.0015514907756470062 -0.0003287474608733931 0.0
0.00240506424888301 -0.00033450788276620177 0.0
0.0014396051871130794 -0.000320114969436223 0.0
0.0013808805412981835 -0.00029997278567426834 0.0
0.002077042645884208 -2.9785233120977045e-5 0.0
0.001381402499655929 -0.00032538479947040184 0.0
0.0013227963695349209 -0.0003049086855215483 0.0
0.001323487669381592 -0.00033096115019381437 0.0
0.0012656836525317967 -0.0003085823199698236 0.0
0.00126371819723537 -0.00028317687977892116 0.0
0.0012032421319863003 -0.00028755530846195725 0.0
0.0012021524654266687 -0.00026072135786338655 0.0
0.0012594896278690351 -0.0003343594751730142 0.0
0.0011372625523301519 -0.0002654021234455965 0.0
0.0011356819455371132 -0.0002379223712693326 0.0
0.001324633292846304 -0.00035853657336786405 0.0
0.0012701951855480945 -0.00036408110025244343 0.0
0.0010723468676666586 -0.0002404572815133538 0.0
0.001068625127197708 -0.00021369883946943435 0.0
0.002546765563330583 -0.000248133400566034 0.0
0.00261043915000008 -0.0002547442980886273 0.0
0.0013256218405628894 -0.00038647403078011304 0.0
0.0012718378296301376 -0.00039185126366885387 0.0
0.0026177933670948556 -0.00022814736321042763 0.0
0.002684473532614338 -0.0002349603190209705 0.0
0.002674336702462753 -0.000264117014177098 0.0
0.002748775916487673 -0.00024271927888678565 0.0
0.0027398329260659967 -0.0002725695515404444 0.0
0.002814271580452241 -0.000248847235617271 0.0
0.0028090354582000097 -0.00027844573432371126 0.0
0.0028858652298514977 -0.00025164603014456356 0.0
0.0028741685158510232 -0.00028187066119263556 0.0
0.00289111298781785 -0.00022328079859397992 0.0
0.0029521091644489983 -0.0002555108487246988 0.0
0.002936363028067068 -0.00028558564680375166 0.0
0.0013272018740127804 -0.0004149433612287515 0.0
0.0010019563508162463 -0.0002155614069168327 0.0
0.000996983942159529 -0.00018842214538339493 0.0
0.002864889271996925 -0.00031283293472396184 0.0
0.002924679257980413 -0.0003160416765764209 0.0
0.00299497927967533 -0.0002883603875456489 0.0
0.002858272641871181 -0.0003444238037863991 0.0
0.0012746568385698378 -0.00042050077389902096 0.0
0.0029834435158488997 -0.00031830481649389235 0.0
0.0030521429939543406 -0.0002898824715549121 0.0
0.0013286199533569635 -0.00044422302251963854 0.0
0.001277044842325625 -0.0004499792038913206 0.0