# vtk DataFile Version 2.0
phase field modeling fracture
ASCII
DATASET UNSTRUCTURED_GRID
POINTS 2538 float
0.0 0.0 0.0
10.0 0.0 0.0
0.0 10.0 0.0
10.0 10.0 0.0
0.0 4.9995 0.0
0.0 5.0005 0.0
5.0 5.0 0.0
0.9416964895726688 0.0 0.0
1.803581725054446 0.0 0.0
2.592419885431098 0.0 0.0
3.314401822861676 0.0 0.0
3.975193910351406 0.0 0.0
4.579982132660152 0.0 0.0
5.133512780936812 0.0 0.0
5.640130319506143 0.0 0.0
6.103810708661955 0.0 0.0
6.528192895506818 0.0 0.0
6.916607540127679 0.0 0.0
7.272102969376355 0.0 0.0
7.597469242948583 0.0 0.0
7.895259826292669 0.0 0.0
8.167811885738017 0.0 0.0
8.417264413845215 0.0 0.0
8.645575169389538 0.0 0.0
8.854535961159101 0.0 0.0
9.045786767735546 0.0 0.0
9.220828555767493 0.0 0.0
9.38103509633881 0.0 0.0
9.527663687265145 0.0 0.0
9.661865124984566 0.0 0.0
9.784692609918062 0.0 0.0
9.897110148790482 0.0 0.0
10.0 0.09999999999992584 0.0
10.0 0.199999999999856 0.0
10.0 0.2999999999997771 0.0
10.0 0.3999999999996677 0.0
10.0 0.4999999999995511 0.0
10.0 0.5999999999994683 0.0
10.0 0.6999999999993983 0.0
10.0 0.7999999999993286 0.0
10.0 0.8999999999992587 0.0
10.0 0.9999999999991888 0.0
10.0 1.099999999999119 0.0
10.0 1.199999999999033 0.0
10.0 1.299999999998852 0.0
10.0 1.399999999998576 0.0
10.0 1.499999999998284 0.0
10.0 1.599999999997992 0.0
10.0 1.6999999999977 0.0
10.0 1.799999999997408 0.0
10.0 1.899999999997116 0.0
10.0 1.999999999996825 0.0
10.0 2.099999999996533 0.0
10.0 2.199999999996241 0.0
10.0 2.299999999995949 0.0
10.0 2.399999999995657 0.0
10.0 2.499999999995365 0.0
10.0 2.599999999995073 0.0
10.0 2.699999999994782 0.0
10.0 2.79999999999449 0.0
10.0 2.899999999994198 0.0
10.0 2.999999999993906 0.0
10.0 3.099999999993614 0.0
10.0 3.199999999993322 0.0
10.0 3.299999999993029 0.0
10.0 3.399999999992738 0.0
10.0 3.499999999992446 0.0
10.0 3.599999999992154 0.0
10.0 3.699999999991863 0.0
10.0 3.799999999991571 0.0
10.0 3.899999999991278 0.0
10.0 3.999999999991022 0.0
10.0 4.099999999991035 0.0
10.0 4.199999999991187 0.0
10.0 4.299999999991338 0.0
10.0 4.399999999991491 0.0
10.0 4.499999999991642 0.0
10.0 4.599999999991795 0.0
10.0 4.699999999991947 0.0
10.0 4.799999999992099 0.0
10.0 4.89999999999225 0.0
10.0 4.999999999992403 0.0
10.0 5.099999999992555 0.0
10.0 5.199999999992706 0.0
10.0 5.299999999992858 0.0
10.0 5.39999999999301 0.0
10.0 5.499999999993161 0.0
10.0 5.599999999993313 0.0
10.0 5.699999999993466 0.0
10.0 5.799999999993618 0.0
10.0 5.899999999993771 0.0
10.0 5.999999999993922 0.0
10.0 6.099999999994074 0.0
10.0 6.199999999994227 0.0
10.0 6.299999999994378 0.0
10.0 6.39999999999453 0.0
10.0 6.499999999994682 0.0
10.0 6.599999999994833 0.0
10.0 6.699999999994986 0.0
10.0 6.799999999995138 0.0
10.0 6.899999999995289 0.0
10.0 6.999999999995442 0.0
10.0 7.099999999995594 0.0
10.0 7.199999999995747 0.0
10.0 7.299999999995897 0.0
10.0 7.39999999999605 0.0
10.0 7.499999999996202 0.0
10.0 7.599999999996353 0.0
10.0 7.699999999996505 0.0
10.0 7.799999999996658 0.0
10.0 7.899999999996808 0.0
10.0 7.999999999996962 0.0
10.0 8.099999999997113 0.0
10.0 8.199999999997265 0.0
10.0 8.299999999997418 0.0
10.0 8.399999999997569 0.0
10.0 8.499999999997721 0.0
10.0 8.599999999997873 0.0
10.0 8.699999999998024 0.0
10.0 8.799999999998176 0.0
10.0 8.899999999998329 0.0
10.0 8.99999999999848 0.0
10.0 9.099999999998634 0.0
10.0 9.199999999998786 0.0
10.0 9.299999999998937 0.0
10.0 9.399999999999089 0.0
10.0 9.499999999999241 0.0
10.0 9.599999999999392 0.0
10.0 9.699999999999545 0.0
10.0 9.799999999999697 0.0
10.0 9.899999999999848 0.0
9.897110148790565 10.0 0.0
9.784692609918244 10.0 0.0
9.66186512498486 10.0 0.0
9.527663687265571 10.0 0.0
9.381035096339392 10.0 0.0
9.220828555768257 10.0 0.0
9.045786767736512 10.0 0.0
8.854535961160305 10.0 0.0
8.645575169391027 10.0 0.0
8.417264413847017 10.0 0.0
8.167811885740178 10.0 0.0
7.895259826295246 10.0 0.0
7.597469242951631 10.0 0.0
7.272102969379938 10.0 0.0
6.916607540131873 10.0 0.0
6.528192895511704 10.0 0.0
6.103810708667616 10.0 0.0
5.640130319512691 10.0 0.0
5.13351278094435 10.0 0.0
4.579982132668816 10.0 0.0
3.975193910361222 10.0 0.0
3.314401822869852 10.0 0.0
2.592419885437257 10.0 0.0
1.803581725058137 10.0 0.0
0.9416964895740705 10.0 0.0
0.0 9.00010000000243 0.0
0.0 8.000200000005481 0.0
0.0 7.000300000005135 0.0
0.0 6.000400000002569 0.0
0.901790731451151 5.000409820926855 0.0
1.657200899774397 5.000334279910023 0.0
2.289991063707192 5.000271000893629 0.0
2.820065163538221 5.000217993483646 0.0
3.264096435579811 5.000173590356442 0.0
3.636051481595835 5.00013639485184 0.0
3.947629914072366 5.000105237008593 0.0
4.208632181002628 5.0000791367819 0.0
4.427267949625672 5.000057273205037 0.0
4.610414277633563 5.000038958572237 0.0
4.763831845154243 5.000023616815485 0.0
4.892346298799659 5.00001076537012 0.0
4.892346298799748 4.99998923462988 0.0
4.763831845154455 4.999976383184515 0.0
4.610414277633943 4.999961041427763 0.0
4.427267949626277 4.999942726794963 0.0
4.208632181003523 4.9999208632181 0.0
3.94762991407365 4.999894762991407 0.0
3.636051481597624 4.99986360514816 0.0
3.264096435582253 4.999826409643559 0.0
2.820065163541503 4.999782006516354 0.0
2.289991063711534 4.999728999106371 0.0
1.657200899778495 4.999665720089978 0.0
0.9017907314530094 4.999590179073145 0.0
0.0 3.999600000002013 0.0
0.0 2.999700000005187 0.0
0.0 1.99980000000512 0.0
0.0 0.9999000000025537 0.0
9.897889398521345 2.93573355845387 0.0
9.906568249974548 7.060009441434234 0.0
9.913122631074113 3.64016132281653 0.0
9.922462129543863 6.354535290629151 0.0
9.917693659967533 4.354211663134567 0.0
9.909873057440208 5.637584487339942 0.0
9.914183254994697 4.950672966925282 0.0
9.913885043715895 7.666887930262611 0.0
9.91009668007573 2.351889069770817 0.0
9.905135696074536 8.138152454502785 0.0
9.913397459621809 1.849999999997262 0.0
7.099302372137626 0.297750452375005 0.0
7.095143729410097 9.700359990366296 0.0
4.942912558701401 5.095838627899509 0.0
4.315009232304429 5.165022115481685 0.0
4.946182472483878 4.906763777264103 0.0
4.317967462990024 4.825955043772673 0.0
9.916390871492647 8.64999999999792 0.0
9.921504649680616 1.368376469890358 0.0
8.292538149791614 0.206877570318844 0.0
8.292538149793597 9.793122429681448 0.0
5.884594439766573 9.587645267048616 0.0
5.794826292691579 0.3794853783929359 0.0
9.913397459621425 9.049999999998557 0.0
9.908526577714177 0.9568239351922434 0.0
3.456851160380649 5.315740054130451 0.0
3.457889657868442 4.707121019609468 0.0
8.945214200703926 0.1503383337970344 0.0
8.950161364448409 9.8413906539257 0.0
9.913862335499305 4.055887885208452 0.0
9.916697353372683 4.650158482607802 0.0
9.919076340414442 6.049999999994006 0.0
9.906994308667635 5.25749687748192 0.0
9.917490342358025 6.655979201891897 0.0
9.915757520293784 7.343848891656911 0.0
9.910049507471042 3.363474386285078 0.0
9.914471988502868 2.647400064832979 0.0
9.91474124160965 9.337490423485129 0.0
9.916971008170838 0.6499999999994355 0.0
4.307157269264427 9.509674045029644 0.0
4.331527375865619 0.4401616696422582 0.0
9.45434939180249 9.878397030523757 0.0
9.457696120412969 0.1270877537061785 0.0
2.555070293622606 5.422044496190925 0.0
2.566232917480916 4.608001224030952 0.0
3.026511860837692 9.332320638257093 0.0
2.945561971800619 0.5895662714727601 0.0
7.7395404387124 0.2511088946967771 0.0
7.736379255744154 9.745848826372828 0.0
4.687135269408529 5.122111433928926 0.0
4.688420821504113 4.871895064967488 0.0
9.910554884115975 0.3448356354522978 0.0
9.911230082250466 9.65764729394159 0.0
9.921953841410854 6.851023993342036 0.0
9.912065178606017 5.448170483544033 0.0
9.911660025326261 3.861846960030188 0.0
9.914847467973438 3.14501593945607 0.0
9.913397459621425 5.849999999993703 0.0
9.913397459621425 7.849999999996735 0.0
9.906916878988277 2.15455769998631 0.0
9.913397459621425 8.349999999997479 0.0
9.909472363117661 1.640528221515488 0.0
9.913987325695956 1.152857110636247 0.0
9.913397459621425 8.849999999998241 0.0
0.9100099990995943 2.614215977520411 0.0
0.8395284981715456 7.451196254860987 0.0
9.723278867451556 9.898135916635193 0.0
9.723316350887044 0.09841820909386662 0.0
1.385819164827588 4.454539963646463 0.0
1.338343629665047 5.523111536005823 0.0
1.377179700550677 0.6809168304959698 0.0
1.418060461092743 9.285896715136046 0.0
9.91268220142518 0.1457914080939694 0.0
9.906737126737994 9.845745933882352 0.0
0.7108351382691361 6.537941170074089 0.0
1.527735020267026 6.915620208855231 0.0
1.630993885659103 7.838271825205868 0.0
2.232760943566823 7.370850737296832 0.0
2.243414218068206 6.688299277952821 0.0
2.779655053105118 7.021588754814074 0.0
2.80227799359795 7.632420170547022 0.0
3.282022065908813 7.305859666021318 0.0
3.327597298795347 7.857554136825748 0.0
3.743210251018715 7.549183328204379 0.0
3.716353232200752 7.062036086888612 0.0
4.111978858674101 7.27497101169417 0.0
4.104192177581432 6.879858986267289 0.0
4.436230765617037 7.045693351607117 0.0
4.430360014817357 6.703971783962796 0.0
4.732390145036301 6.849841042423394 0.0
5.056161327708878 5.095276573498806 0.0
5.111586796021131 4.999081142133581 0.0
5.169267363407189 5.09444870412406 0.0
5.223795108752053 4.996986220359468 0.0
5.281480803887719 5.092780870372803 0.0
5.335670761900611 4.994887492556936 0.0
5.393485214772442 5.090486192743301 0.0
5.447323082877892 4.992601527033996 0.0
5.505243219343024 5.087953380710069 0.0
5.558739102026105 4.990287787962959 0.0
5.616491581184779 5.085335255235766 0.0
5.669852346908056 4.9879269227514 0.0
5.727502713908907 5.082679981817038 0.0
5.780766004135139 4.988313988715834 0.0
5.838244881129535 5.080480568766611 0.0
5.891357695677371 4.986433849408193 0.0
5.948696036767613 5.077969900389505 0.0
6.001601341641615 4.981313698556656 0.0
6.058851024265095 5.074871552128682 0.0
6.111614020704875 4.978360695880202 0.0
6.168801161530775 5.072044953270978 0.0
6.221368818778567 4.975825765213497 0.0
6.278268309066882 5.066182320461055 0.0
6.330814273567539 4.972837984645718 0.0
6.387565032421376 5.062889771971895 0.0
6.437476667631405 4.971693683589553 0.0
[...]
POINT_DATA 2538
VECTORS disp float
1.9640918731156624e-11 5.126005758567736e-11 0.0
4.1872141198531847e-11 -1.146004420438251e-10 0.0
0.0046999999830533885 4.572084462081778e-11 0.0
0.004699999957413203 -1.1775853899117177e-10 0.0
0.001481444773867256 0.0006214715234933901 0.0
0.003384927570598465 0.000422754072842575 0.0
0.0023158078807800505 0.00015117466590920474 0.0
5.689385653540906e-12 5.872359264203087e-12 0.0
1.0149203073909409e-11 1.273986982528989e-11 0.0
9.458969021874292e-12 8.11851754428682e-12 0.0
9.414923172318557e-12 7.566799076106995e-12 0.0
8.970788264101431e-12 5.76412217743817e-12 0.0
8.486345872719081e-12 4.263195531969004e-12 0.0
8.04261014201148e-12 2.6119311596646753e-12 0.0
7.681694635307253e-12 8.541071872695101e-13 0.0
6.823619748269052e-12 -1.0886122339085258e-12 0.0
7.1414634051863e-12 -2.8004840571401307e-12 0.0
6.809739289224044e-12 -4.7400128258060525e-12 0.0
6.742547264581185e-12 -6.7964787764111675e-12 0.0
6.8625051484469034e-12 -8.840923377690406e-12 0.0
6.740130595605346e-12 -1.0799954071899224e-11 0.0
7.04363089485875e-12 -1.3134732533559448e-11 0.0
7.000941000573404e-12 -1.5146933703646217e-11 0.0
7.345900136520894e-12 -1.7468704573346988e-11 0.0
7.422042200436737e-12 -2.013073161875235e-11 0.0
7.702497341682276e-12 -2.261851003120294e-11 0.0
7.992573790634014e-12 -2.55645387557069e-11 0.0
8.379730854121475e-12 -2.8836665490485463e-11 0.0
9.133998321321208e-12 -3.271555983180964e-11 0.0
9.114758766939443e-12 -3.682770965901369e-11 0.0
1.226370593925847e-11 -4.593062878669673e-11 0.0
5.146906435082136e-12 -4.228188941346375e-11 0.0
5.7693889301973056e-5 -7.891619504657877e-5 0.0
9.944406617209739e-5 -0.00013660569682027036 0.0
0.00013993056517778196 -0.0001870500452748425 0.0
0.00017874650157537094 -0.00023301301048356328 0.0
0.00021641978621969246 -0.00027581089789185183 0.0
0.0002537388205817818 -0.0003164580784390782 0.0
0.0002913119286206162 -0.00035513420083354696 0.0
0.00032877958902264296 -0.0003921287137656212 0.0
0.0003664629950405436 -0.00042775401529921683 0.0
0.00040444385085214925 -0.00046202309915350517 0.0
0.00044274689643582996 -0.0004952103800280794 0.0
0.00048164129287056666 -0.0005273400646175317 0.0
0.0005208298909855287 -0.0005584065813900485 0.0
0.0005605154738076155 -0.0005886328696114539 0.0
0.0006009213522899894 -0.000617986330286324 0.0
0.0006416058255002298 -0.000646417491796246 0.0
0.0006828473196567616 -0.0006740854996107198 0.0
0.0007246267383502627 -0.0007008711196677867 0.0
0.0007669166097019211 -0.0007269147416030785 0.0
0.0008097361342547578 -0.0007522162192756241 0.0
0.0008531362528398842 -0.0007767795564547856 0.0
0.000897005838025984 -0.0008005806791474826 0.0
0.0009415992926618863 -0.0008237435951096943 0.0
0.0009865097038800463 -0.0008461147399770968 0.0
0.0010321912882335679 -0.0008678264170544402 0.0
0.0010781527076801794 -0.0008887564038274858 0.0
0.001124710920342414 -0.0009090342472981305 0.0
0.0011716991880109586 -0.0009285165229021869 0.0
0.0012193635746217597 -0.0009473792075896936 0.0
0.0012672790500508912 -0.000965483645052152 0.0
0.0013158550549591964 -0.0009829342529954358 0.0
0.001364821227225414 -0.0009995998120421144 0.0
0.0014142856438626077 -0.0010155724999112792 0.0
0.0014640942149171607 -0.0010307881827150633 0.0
0.0015145162724878515 -0.0010453307925954451 0.0
0.0015651422844997912 -0.0010590647866497653 0.0
0.0016162289121931987 -0.0010720757127262498 0.0
0.0016676416592388444 -0.0010842749041439523 0.0
0.0017194359306566904 -0.0010956959572591485 0.0
0.001771526429702883 -0.0011064035600765157 0.0
0.0018238816547689277 -0.0011162490030026406 0.0
0.001876565687649791 -0.001125385594474575 0.0
0.0019295120612396928 -0.001133673850097351 0.0
0.001982612340964708 -0.0011412285183632967 0.0
0.002035959352664796 -0.0011478728405037572 0.0
0.002089311390597505 -0.0011537648663921755 0.0
0.002142870969146742 -0.0011588575269009535 0.0
0.0021964548060230743 -0.001163052777781351 0.0
0.0022500579412801282 -0.001166501037175018 0.0
0.0023038013008624906 -0.001169046171164395 0.0
0.002357031936982805 -0.0011705553762386047 0.0
0.0024107514549226647 -0.0011713798138694566 0.0
0.0024628921145122234 -0.0011709818012639829 0.0
0.00251587377822711 -0.0011696507226447868 0.0
0.002566537327048454 -0.0011670508201754388 0.0
0.0026189090966567265 -0.001163523880474532 0.0
0.002669770186447262 -0.0011586610434524264 0.0
0.002720835418727107 -0.0011519494786160363 0.0
0.0027721967867598736 -0.001144053542199778 0.0
0.002824039514918302 -0.0011345132865699765 0.0
0.0028759684836906574 -0.0011240267720559445 0.0
0.0029281378678884607 -0.0011123351171358573 0.0
0.002980358872466573 -0.0010998275376970762 0.0
0.003032533470157979 -0.0010862386509101212 0.0
0.0030846818788770156 -0.0010717806989063016 0.0
0.003136633954407289 -0.0010567271047479561 0.0
0.003188131025993522 -0.0010408142100193551 0.0
0.003239306944095981 -0.001024270459530142 0.0
0.0032902325798786513 -0.00100693960648906 0.0
0.003340827383449084 -0.0009888178509941086 0.0
0.0033908561961269626 -0.0009700863659624028 0.0
0.0034407457470740574 -0.0009505591939352292 0.0
0.0034899611200528797 -0.0009303183086280726 0.0
0.003538738343481939 -0.0009094770680483251 0.0
0.003587242573540848 -0.000887786772667319 0.0
0.00363503910120513 -0.0008655067832270182 0.0
0.0036825000652257454 -0.0008425175626233124 0.0
0.003729426846766727 -0.000818813910961354 0.0
0.0037759657925152236 -0.0007944055892953881 0.0
0.003822018428482581 -0.0007691836643938281 0.0
0.003867643703988927 -0.0007431925710671676 0.0
0.003912587400267508 -0.0007165439717375315 0.0
0.003957181344513537 -0.0006891410817128391 0.0
0.004001378013700151 -0.0006609066502301986 0.0
0.004045009939071298 -0.0006318586892937873 0.0
0.004088265513876975 -0.0006020290107579678 0.0
0.004131253257439889 -0.0005712153377988656 0.0
0.004173683385106385 -0.0005394515580676452 0.0
0.004215666081435774 -0.0005067888312719108 0.0
0.004257544517873031 -0.00047304422012449854 0.0
0.004299276487223773 -0.00043805507407195535 0.0
0.00434062353838754 -0.00040174247576321514 0.0
0.004381689701856734 -0.00036404226484586103 0.0
0.004422841125338566 -0.0003246815177468443 0.0
0.004464573108439273 -0.00028323477592060483 0.0
0.004506321790819876 -0.00023943007745419226 0.0
0.0045485940933537574 -0.0001922879922046185 0.0
0.004593455032534998 -0.0001403594050068641 0.0
0.004639530936852534 -8.098275968660906e-5 0.0
0.004699999994294801 -4.0214258241542586e-11 0.0
0.004699999987015363 -4.451403408974373e-11 0.0
0.00469999999054506 -3.272831744462206e-11 0.0
0.004699999990458412 -2.935668768680645e-11 0.0
0.0046999999910131394 -2.537887296914569e-11 0.0
0.004699999991449541 -2.2215298997182522e-11 0.0
0.004699999991606553 -1.967436437306636e-11 0.0
0.004699999991909324 -1.7377433779137966e-11 0.0
0.004699999991984319 -1.521129054497517e-11 0.0
0.004699999992118353 -1.3094297417956355e-11 0.0
0.004699999992479658 -1.1379975971666012e-11 0.0
0.00469999999235034 -9.124401971140143e-12 0.0
0.0046999999925134844 -7.442415598090826e-12 0.0
0.004699999992573951 -5.493521887917093e-12 0.0
0.004699999992561904 -3.634339344683872e-12 0.0
0.004699999992475927 -1.7000594711463097e-12 0.0
0.004699999992455029 1.7103052019742443e-13 0.0
0.0046999999917519105 2.2405489072620443e-12 0.0
0.004699999992179428 3.879922056800962e-12 0.0
0.004699999991080231 5.926653555927547e-12 0.0
0.004699999991060157 7.259783926078159e-12 0.0
0.004699999990647727 8.709501565063083e-12 0.0
0.004699999991008363 9.158040175017663e-12 0.0
0.004699999990718 1.295515347943586e-11 0.0
0.004699999994992241 6.354089198806287e-12 0.0
0.004357121777453488 0.0002699621803268046 0.0
0.004054106206489734 0.00039330045036868204 0.0
0.0037751887301242333 0.0004429914734972196 0.0
0.003538550134877898 0.0004422267276427603 0.0
0.0033759627590056254 0.0002789737049824524 0.0
0.003351402820920265 0.00020263467895306742 0.0
0.0033024116536776093 0.00016669999521351863 0.0
0.003243594564537657 0.00015100220314421438 0.0
0.003173926978419919 0.00014887188045104241 0.0
0.0030972941347994073 0.00015179508363081487 0.0
0.0030150576572698135 0.00015650144363093594 0.0
0.002928743904391096 0.0001635782656375836 0.0
0.002836755800689219 0.00016942630206463356 0.0
0.0027383130344682182 0.00017308837827689972 0.0
0.0026288136373569214 0.0001743412859577996 0.0
0.002496793636336934 0.0001746795434659991 0.0
0.002139699917417292 0.0001938030189800434 0.0
0.0020159859386448794 0.00020553450257058313 0.0
0.0019140541682417566 0.00020880431704343482 0.0
0.0018253113456644689 0.00021039061485751071 0.0
0.0017450124694409444 0.0002119751907485268 0.0
0.0016724831176778744 0.0002145755676225217 0.0
0.0016075778517711556 0.0002197644004888679 0.0
0.0015524809405278316 0.0002297272734446721 0.0
0.0015095831163506736 0.00025065272688957904 0.0
0.0014807133222677791 0.0002882502670436747 0.0
0.0014700523909020947 0.0003527208297457544 0.0
0.0014724673510601817 0.00045913163894269253 0.0
0.0012964371417398502 0.0006272712260697677 0.0
0.001040124838389635 0.0005852480341350275 0.0
0.0007216544383043814 0.0004844300768898107 0.0
0.0003806579686569325 0.0003181569547119486 0.0
0.001229678187889944 -0.0009071386586614228 0.0
0.0033794134036940937 -0.0009279471265070768 0.0
0.0015809669296289954 -0.001022224368322201 0.0
0.0030148918358646397 -0.0010482090096617627 0.0
0.001955215962672576 -0.00109673915742143 0.0
0.0026412406961616014 -0.0011116367264595666 0.0
0.002276082606958388 -0.0011244709564610673 0.0
0.003675539446500953 -0.0008074000500290911 0.0
0.0009579586517247223 -0.0007965472362748007 0.0
0.0038951922551471382 -0.0006887082056913 0.0
0.0007383071698034722 -0.0006787284264863224 0.0
7.635038177564579e-5 -1.5082346843835063e-5 0.0
0.0046224991023369735 -1.4781122518545027e-5 0.0
0.0025275943247900774 0.00019371239110893307 0.0
0.002896695340350566 0.00018902470526217845 0.0
0.0021061060485082434 0.00020316834160850815 0.0
0.0017641933917045194 0.00023009658567696558 0.0
0.0041197157065679365 -0.0005498336144592635 0.0
0.0005403413131443221 -0.0005490814954712754 0.0
5.186087667328895e-5 -2.747438842645447e-5 0.0
0.004646685165117355 -2.5582961292336592e-5 0.0
0.004588346591071756 3.297806788526845e-6 0.0
0.00010320595784934839 3.971988136841444e-6 0.0
0.004289493698002896 -0.0004192740213162685 0.0
0.00037824160084137765 -0.00041426660518126843 0.0
0.003150561311998142 0.00017798603448472097 0.0
0.0015488598033415962 0.00023951404799240993 0.0
3.8319071170561445e-5 -3.0130159553897524e-5 0.0
0.004657943507898807 -2.916259086372621e-5 0.0
0.0017970334742816957 -0.0010693773690750228 0.0
0.002113891785525735 -0.0011146097677061687 0.0
0.0028552772149672808 -0.0010824238972758358 0.0
0.002441411181049452 -0.00112360545796978 0.0
0.0031724398648764504 -0.001002153642505375 0.0
0.003519409218355715 -0.0008778248709245824 0.0
0.0014406156616634193 -0.0009824952319812796 0.0
0.0010940490867291219 -0.0008602834135111317 0.0
0.004408806731762943 -0.0003148361119035392 0.0
0.000262653012854123 -0.00030672881671052027 0.0
0.0045576895140891725 2.953288397852712e-5 0.0
0.00012839401219519398 2.5044379752640686e-5 0.0
0.004664844911960104 -3.2350782191585706e-5 0.0
3.5340270090799597e-5 -3.673250729034546e-5 0.0
0.003299389789231049 0.00018400138767932366 0.0
0.0014364374702900552 0.0002777993591373885 0.0
0.004501128395301617 5.496425417899714e-5 0.0
0.0001771754705655501 4.9171455821176825e-5 0.0
6.339653168085487e-5 -2.282789157042679e-5 0.0
0.004634627237801616 -2.1894231934492256e-5 0.0
0.002711014250096717 0.00019759532334087828 0.0
0.0019314011546220627 0.00022856209562929772 0.0
0.00014505397701565663 -0.0001771994336098101 0.0
0.0045446372983327646 -0.0001782187027391482 0.0
0.0032721526617639205 -0.0009729837919632908 0.0
0.0025423666974729413 -0.0011221059329024432 0.0
0.0016954405567353044 -0.001048095837894943 0.0
0.001332579778174163 -0.0009506759032292037 0.0
0.002751119973367705 -0.0010982270666563757 0.0
0.0037617307018290758 -0.0007645380196234419 0.0
0.000869578833302897 -0.0007505497708634116 0.0
0.003989081428764218 -0.0006355019500799216 0.0
0.0006500394859817418 -0.0006218567374198008 0.0
0.00045452187020117966 -0.00048031199090250136 0.0
0.004205307821935615 -0.00048605825998956616 0.0
0.0008705907571300231 0.0003422613735895197 0.0
0.003907007090547684 0.0002906873100630915 0.0
0.004665899605327465 -3.685907772897153e-5 0.0
3.087485961354112e-5 -3.71603902429224e-5 0.0
0.0013732298594072172 0.0003852074506213427 0.0
0.0034141707862289645 0.00024921161823537646 0.0
0.00019957440820890754 7.975168846381626e-5 0.0
0.004496398561621921 7.676842622355633e-5 0.0
6.320936134252576e-5 -7.94839390475463e-5 0.0
0.004630381102095004 -8.21332891227986e-5 0.0
0.003652634744383356 0.0003315850064824399 0.0
0.0037422470396322486 0.00025775542580250044 0.0
0.0040300385505578585 0.00020227811412223804 0.0
0.003867748208692351 0.00020948183512028214 0.0
0.0036473042222851704 0.00023286666149533217 0.0
0.003728870374320428 0.00021616815299965714 0.0
0.003939622669181263 0.00018520199519516485 0.0
0.003808233518242804 0.00019782808604661763 0.0
0.004007089256142428 0.00016310117776736723 0.0
0.0038853444229911284 0.0001746716539132045 0.0
0.003698872511299636 0.00020360314015134456 0.0
0.003769335911607216 0.00017964415170308232 0.0
0.0036084436131877512 0.0002023327136722854 0.0
0.0036651899767204863 0.00017688384557241357 0.0
0.0035182151947514284 0.0001959356712988781 0.0
0.0035692873082727307 0.00016609012135399898 0.0
0.002466179649658271 0.00013080978803790692 0.0
0.00231227946996812 0.00010521634893780598 0.0
0.002433400962748354 9.346100378993201e-5 0.0
0.0023087813808112655 7.502098514060803e-5 0.0
0.00241421127180026 6.486708226685896e-5 0.0
0.0023071835537851536 5.0770805542746985e-5 0.0
0.0024018265150100152 4.065994756580361e-5 0.0
0.002305306178061023 2.847163241799876e-5 0.0
0.002392810132154556 1.8808143750491718e-5 0.0
0.00230364059287164 7.844828978385065e-6 0.0
0.0023859707073323414 -1.2937494523165189e-6 0.0
0.00230237351361249 -1.1424894606838003e-5 0.0
0.002380709831895391 -2.0714953261803158e-5 0.0
0.0023035042753982537 -3.0103002688488937e-5 0.0
0.0023766096972146137 -3.931843809050092e-5 0.0
0.0023025997159330574 -4.8370449911498444e-5 0.0
0.002372898184068398 -5.741959545749524e-5 0.0
0.0022993863474276093 -6.624499672916264e-5 0.0
0.0023692627607641054 -7.523837985187028e-5 0.0
0.0022979485953489513 -8.381179159254214e-5 0.0
0.002366250679168996 -9.291564182799723e-5 0.0
0.0022968223217057606 -0.00010132333801513404 0.0
0.002361343941233804 -0.00011043543488903771 0.0
0.002295313806508718 -0.00011890111661630589 0.0
0.002358481817222624 -0.00012808660194504705 0.0
0.0022950691832797406 -0.00013616796379642106 0.0
0.0023560537983320527 -0.00014584035780581406 0.0
0.0022906020711649312 -0.00015286844116872174 0.0
0.0023529923488078666 -0.00016370537669337226 0.0
0.002274019919616518 -0.00017095498696043896 0.0
0.00235421034608252 -0.00018216697617034984 0.0
0.0022877422468963126 -0.00019062743181698033 0.0
0.002351505269294655 -0.00020071315751780318 0.0
0.002288755415626786 -0.00020969622526382175 0.0
0.002349874109678607 -0.0002198234029083379 0.0
0.0022915257522962344 -0.00022898678031883858 0.0
0.0023480067615023526 -0.00023927279478441028 0.0
0.0022912988924207694 -0.0002489929362981258 0.0
0.002221328535333167 1.9445747306675903e-5 0.0
0.0023461247080514133 -0.0002592996108318064 0.0
0.0022277347067003674 -7.371240580035831e-5 0.0
0.002215054914897629 -0.00018532864968983138 0.0
0.0022864497909110787 -0.0002692481548515155 0.0
0.0023438216658184805 -0.0002798873743803198 0.0
0.0022817241507350943 -0.000290823324374667 0.0
0.0022252091270111374 -0.00027818380723542574 0.0
0.002219055431887506 -0.0003008497046769402 0.0
0.0023392377440950448 -0.00030232509151925744 0.0
0.002402043293583531 -0.00029058814289281915 0.0
0.002411825109976572 -0.00019100846405240653 0.0
0.0023977849262731853 -0.000313695028428693 0.0
0.0024643069717179148 -0.0002997293514176924 0.0
0.002457856227750322 -0.00032498357756009544 0.0
0.0021630954036044063 -0.0002875950034320112 0.0
0.0021592259165524983 -0.00030988300876702416 0.0
0.0025263123837022086 -0.00030976168062227434 0.0
0.0020996857913757935 -0.0002958829668780517 0.0
0.002099497098344386 -0.0003193344477648033 0.0
0.0025209527970149474 -0.0003353425664396298 0.0
0.0025871446119758606 -0.0003212863478403476 0.0
0.002035861065147221 -0.0003043642670303672 0.0
0.0020342012582524995 -0.0003285904952215603 0.0
0.002583184353858605 -0.00034674861036623175 0.0
0.0026510842092869707 -0.0003318352010044638 0.0
0.001972309200439743 -0.00031288911837452747 0.0
0.0019700935909672222 -0.0003386468731783416 0.0
0.002646950603671757 -0.0003586629838785026 0.0
0.002716494547842184 -0.00034225637583067283 0.0
0.0019092048190916479 -0.00032013096166319966 0.0
0.0019027647064659503 -0.0003467723506444698 0.0
0.00271321516080878 -0.00036982396786073467 0.0
0.0027829637961866265 -0.0003524762964709253 0.0
0.0018398198990724536 -0.00032744929859973695 0.0
0.0018350233663504422 -0.0003557274403441973 0.0
0.0017685188915336956 -0.00033656810674956484 0.0
0.0017728697277099234 -0.0003066201205847268 0.0
0.002637162491601259 -0.00038518387353062423 0.0
0.0027793718187034415 -0.0003811789023321542 0.0
0.002850339686744574 -0.0003625596309972336 0.0
0.0028550995810656863 -0.00033315328262370004 0.0
0.002426273182658401 -0.00010250546484601867 0.0
0.0029249994123911175 -0.00034272389336303493 0.0
0.002930365360163472 -0.00031226672781912876 0.0
0.00300228833898333 -0.0003208961192258977 0.0
0.0017692411616369878 -0.0003672295929595431 0.0
0.0016997718762595516 -0.0003448139358785892 0.0
0.0018344425292307032 -0.00038619918085808886 0.0
0.0028447330535307127 -0.00039282153102899894 0.0
0.0017012601470923418 -0.0003763957204968482 0.0
0.0016310263234811614 -0.00035225288417859183 0.0
0.002454797749503242 -2.856905904066904e-5 0.0
0.0016321611585130946 -0.00038329903060428655 0.0
0.0015621090958845936 -0.0003587630860701218 0.0
0.001563366676534943 -0.0003906878707433237 0.0
0.0014942824697169756 -0.0003638251264961832 0.0
0.0014914852258901194 -0.00033271045522987073 0.0
0.0014197339878508246 -0.0003386865792930203 0.0
0.0014179222610260455 -0.00030582046335795687 0.0
0.0014872554422810354 -0.0003955861842356831 0.0
0.0013410093001954763 -0.0003122362355670892 0.0
0.0013385806718645614 -0.0002785895733514492 0.0
0.001565056327888546 -0.00042457268503738306 0.0
0.0015002602845368771 -0.0004320858330780181 0.0
0.0012635551870780297 -0.0002823790042399807 0.0
0.0012585933261929074 -0.0002496823185685478 0.0
0.0030097191376513483 -0.000290121614769024 0.0
0.003084305760576222 -0.00029837975809441963 0.0
0.001566443602214647 -0.0004589877088535775 0.0
0.001502336028428973 -0.0004663658042147926 0.0
0.0030926019089802647 -0.0002667171713893033 0.0
0.0031705602708641217 -0.0002752924109522397 0.0
0.003159153786864075 -0.00031002844357415024 0.0
0.003245728774504704 -0.0002850810695295236 0.0
0.0032358675467496654 -0.0003207319539651776 0.0
0.0033223213778408437 -0.0002930644585605879 0.0
0.0033169581288287255 -0.0003285651624857929 0.0
0.003406041139563754 -0.000297303114754879 0.0
0.0033933263777987267 -0.0003335892957510026 0.0
0.003411415921054357 -0.00026331058950480364 0.0
0.0034836748369994975 -0.00030296047090743995 0.0
0.003466439601929807 -0.0003391480517760629 0.0
0.0015684246516713542 -0.0004941219028645658 0.0
0.0011797007749785302 -0.0002527023218395186 0.0
0.0011732639255950898 -0.0002196135730318255 0.0
0.0033836502540881596 -0.0003709454056410493 0.0
0.003454206115012048 -0.00037605308195605864 0.0
0.003535598601690882 -0.0003437994459580005 0.0
0.003377369418677833 -0.0004093329152766566 0.0
0.0015057116734318759 -0.0005017736497632317 0.0
0.003523830338977246 -0.00038031437708221043 0.0
0.0036032520871375623 -0.00034718432079976365 0.0
0.0015701077612800406 -0.000530320009432295 0.0
0.0015084765696247659 -0.0005382607928642851 0.0
0.0014451203804059201 -0.0005085347064086739 0.0