# vtk DataFile Version 2.0
phase field modeling fracture
ASCII
DATASET UNSTRUCTURED_GRID
POINTS 2538 float
0.0 0.0 0.0
10.0 0.0 0.0
0.0 10.0 0.0
10.0 10.0 0.0
0.0 4.9995 0.0
0.0 5.0005 0.0
5.0 5.0 0.0
0.9416964895726688 0.0 0.0
1.803581725054446 0.0 0.0
2.592419885431098 0.0 0.0
3.314401822861676 0.0 0.0
3.975193910351406 0.0 0.0
4.579982132660152 0.0 0.0
5.133512780936812 0.0 0.0
5.640130319506143 0.0 0.0
6.103810708661955 0.0 0.0
6.528192895506818 0.0 0.0
6.916607540127679 0.0 0.0
7.272102969376355 0.0 0.0
7.597469242948583 0.0 0.0
7.895259826292669 0.0 0.0
8.167811885738017 0.0 0.0
8.417264413845215 0.0 0.0
8.645575169389538 0.0 0.0
8.854535961159101 0.0 0.0
9.045786767735546 0.0 0.0
9.220828555767493 0.0 0.0
9.38103509633881 0.0 0.0
9.527663687265145 0.0 0.0
9.661865124984566 0.0 0.0
9.784692609918062 0.0 0.0
9.897110148790482 0.0 0.0
10.0 0.09999999999992584 0.0
10.0 0.199999999999856 0.0
10.0 0.2999999999997771 0.0
10.0 0.3999999999996677 0.0
10.0 0.4999999999995511 0.0
10.0 0.5999999999994683 0.0
10.0 0.6999999999993983 0.0
10.0 0.7999999999993286 0.0
10.0 0.8999999999992587 0.0
10.0 0.9999999999991888 0.0
10.0 1.099999999999119 0.0
10.0 1.199999999999033 0.0
10.0 1.299999999998852 0.0
10.0 1.399999999998576 0.0
10.0 1.499999999998284 0.0
10.0 1.599999999997992 0.0
10.0 1.6999999999977 0.0
10.0 1.799999999997408 0.0
10.0 1.899999999997116 0.0
10.0 1.999999999996825 0.0
10.0 2.099999999996533 0.0
10.0 2.199999999996241 0.0
10.0 2.299999999995949 0.0
10.0 2.399999999995657 0.0
10.0 2.499999999995365 0.0
10.0 2.599999999995073 0.0
10.0 2.699999999994782 0.0
10.0 2.79999999999449 0.0
10.0 2.899999999994198 0.0
10.0 2.999999999993906 0.0
10.0 3.099999999993614 0.0
10.0 3.199999999993322 0.0
10.0 3.299999999993029 0.0
10.0 3.399999999992738 0.0
10.0 3.499999999992446 0.0
10.0 3.599999999992154 0.0
10.0 3.699999999991863 0.0
10.0 3.799999999991571 0.0
10.0 3.899999999991278 0.0
10.0 3.999999999991022 0.0
10.0 4.099999999991035 0.0
10.0 4.199999999991187 0.0
10.0 4.299999999991338 0.0
10.0 4.399999999991491 0.0
10.0 4.499999999991642 0.0
10.0 4.599999999991795 0.0
10.0 4.699999999991947 0.0
10.0 4.799999999992099 0.0
10.0 4.89999999999225 0.0
10.0 4.999999999992403 0.0
10.0 5.099999999992555 0.0
10.0 5.199999999992706 0.0
10.0 5.299999999992858 0.0
10.0 5.39999999999301 0.0
10.0 5.499999999993161 0.0
10.0 5.599999999993313 0.0
10.0 5.699999999993466 0.0
10.0 5.799999999993618 0.0
10.0 5.899999999993771 0.0
10.0 5.999999999993922 0.0
10.0 6.099999999994074 0.0
10.0 6.199999999994227 0.0
10.0 6.299999999994378 0.0
10.0 6.39999999999453 0.0
10.0 6.499999999994682 0.0
10.0 6.599999999994833 0.0
10.0 6.699999999994986 0.0
10.0 6.799999999995138 0.0
10.0 6.899999999995289 0.0
10.0 6.999999999995442 0.0
10.0 7.099999999995594 0.0
10.0 7.199999999995747 0.0
10.0 7.299999999995897 0.0
10.0 7.39999999999605 0.0
10.0 7.499999999996202 0.0
10.0 7.599999999996353 0.0
10.0 7.699999999996505 0.0
10.0 7.799999999996658 0.0
10.0 7.899999999996808 0.0
10.0 7.999999999996962 0.0
10.0 8.099999999997113 0.0
10.0 8.199999999997265 0.0
10.0 8.299999999997418 0.0
10.0 8.399999999997569 0.0
10.0 8.499999999997721 0.0
10.0 8.599999999997873 0.0
10.0 8.699999999998024 0.0
10.0 8.799999999998176 0.0
10.0 8.899999999998329 0.0
10.0 8.99999999999848 0.0
10.0 9.099999999998634 0.0
10.0 9.199999999998786 0.0
10.0 9.299999999998937 0.0
10.0 9.399999999999089 0.0
10.0 9.499999999999241 0.0
10.0 9.599999999999392 0.0
10.0 9.699999999999545 0.0
10.0 9.799999999999697 0.0
10.0 9.899999999999848 0.0
9.897110148790565 10.0 0.0
9.784692609918244 10.0 0.0
9.66186512498486 10.0 0.0
9.527663687265571 10.0 0.0
9.381035096339392 10.0 0.0
9.220828555768257 10.0 0.0
9.045786767736512 10.0 0.0
8.854535961160305 10.0 0.0
8.645575169391027 10.0 0.0
8.417264413847017 10.0 0.0
8.167811885740178 10.0 0.0
7.895259826295246 10.0 0.0
7.597469242951631 10.0 0.0
7.272102969379938 10.0 0.0
6.916607540131873 10.0 0.0
6.528192895511704 10.0 0.0
6.103810708667616 10.0 0.0
5.640130319512691 10.0 0.0
5.13351278094435 10.0 0.0
4.579982132668816 10.0 0.0
3.975193910361222 10.0 0.0
3.314401822869852 10.0 0.0
2.592419885437257 10.0 0.0
1.803581725058137 10.0 0.0
0.9416964895740705 10.0 0.0
0.0 9.00010000000243 0.0
0.0 8.000200000005481 0.0
0.0 7.000300000005135 0.0
0.0 6.000400000002569 0.0
0.901790731451151 5.000409820926855 0.0
1.657200899774397 5.000334279910023 0.0
2.289991063707192 5.000271000893629 0.0
2.820065163538221 5.000217993483646 0.0
3.264096435579811 5.000173590356442 0.0
3.636051481595835 5.00013639485184 0.0
3.947629914072366 5.000105237008593 0.0
4.208632181002628 5.0000791367819 0.0
4.427267949625672 5.000057273205037 0.0
4.610414277633563 5.000038958572237 0.0
4.763831845154243 5.000023616815485 0.0
4.892346298799659 5.00001076537012 0.0
4.892346298799748 4.99998923462988 0.0
4.763831845154455 4.999976383184515 0.0
4.610414277633943 4.999961041427763 0.0
4.427267949626277 4.999942726794963 0.0
4.208632181003523 4.9999208632181 0.0
3.94762991407365 4.999894762991407 0.0
3.636051481597624 4.99986360514816 0.0
3.264096435582253 4.999826409643559 0.0
2.820065163541503 4.999782006516354 0.0
2.289991063711534 4.999728999106371 0.0
1.657200899778495 4.999665720089978 0.0
0.9017907314530094 4.999590179073145 0.0
0.0 3.999600000002013 0.0
0.0 2.999700000005187 0.0
0.0 1.99980000000512 0.0
0.0 0.9999000000025537 0.0
9.897889398521345 2.93573355845387 0.0
9.906568249974548 7.060009441434234 0.0
9.913122631074113 3.64016132281653 0.0
9.922462129543863 6.354535290629151 0.0
9.917693659967533 4.354211663134567 0.0
9.909873057440208 5.637584487339942 0.0
9.914183254994697 4.950672966925282 0.0
9.913885043715895 7.666887930262611 0.0
9.91009668007573 2.351889069770817 0.0
9.905135696074536 8.138152454502785 0.0
9.913397459621809 1.849999999997262 0.0
7.099302372137626 0.297750452375005 0.0
7.095143729410097 9.700359990366296 0.0
4.942912558701401 5.095838627899509 0.0
4.315009232304429 5.165022115481685 0.0
4.946182472483878 4.906763777264103 0.0
4.317967462990024 4.825955043772673 0.0
9.916390871492647 8.64999999999792 0.0
9.921504649680616 1.368376469890358 0.0
8.292538149791614 0.206877570318844 0.0
8.292538149793597 9.793122429681448 0.0
5.884594439766573 9.587645267048616 0.0
5.794826292691579 0.3794853783929359 0.0
9.913397459621425 9.049999999998557 0.0
9.908526577714177 0.9568239351922434 0.0
3.456851160380649 5.315740054130451 0.0
3.457889657868442 4.707121019609468 0.0
8.945214200703926 0.1503383337970344 0.0
8.950161364448409 9.8413906539257 0.0
9.913862335499305 4.055887885208452 0.0
9.916697353372683 4.650158482607802 0.0
9.919076340414442 6.049999999994006 0.0
9.906994308667635 5.25749687748192 0.0
9.917490342358025 6.655979201891897 0.0
9.915757520293784 7.343848891656911 0.0
9.910049507471042 3.363474386285078 0.0
9.914471988502868 2.647400064832979 0.0
9.91474124160965 9.337490423485129 0.0
9.916971008170838 0.6499999999994355 0.0
4.307157269264427 9.509674045029644 0.0
4.331527375865619 0.4401616696422582 0.0
9.45434939180249 9.878397030523757 0.0
9.457696120412969 0.1270877537061785 0.0
2.555070293622606 5.422044496190925 0.0
2.566232917480916 4.608001224030952 0.0
3.026511860837692 9.332320638257093 0.0
2.945561971800619 0.5895662714727601 0.0
7.7395404387124 0.2511088946967771 0.0
7.736379255744154 9.745848826372828 0.0
4.687135269408529 5.122111433928926 0.0
4.688420821504113 4.871895064967488 0.0
9.910554884115975 0.3448356354522978 0.0
9.911230082250466 9.65764729394159 0.0
9.921953841410854 6.851023993342036 0.0
9.912065178606017 5.448170483544033 0.0
9.911660025326261 3.861846960030188 0.0
9.914847467973438 3.14501593945607 0.0
9.913397459621425 5.849999999993703 0.0
9.913397459621425 7.849999999996735 0.0
9.906916878988277 2.15455769998631 0.0
9.913397459621425 8.349999999997479 0.0
9.909472363117661 1.640528221515488 0.0
9.913987325695956 1.152857110636247 0.0
9.913397459621425 8.849999999998241 0.0
0.9100099990995943 2.614215977520411 0.0
0.8395284981715456 7.451196254860987 0.0
9.723278867451556 9.898135916635193 0.0
9.723316350887044 0.09841820909386662 0.0
1.385819164827588 4.454539963646463 0.0
1.338343629665047 5.523111536005823 0.0
1.377179700550677 0.6809168304959698 0.0
1.418060461092743 9.285896715136046 0.0
9.91268220142518 0.1457914080939694 0.0
9.906737126737994 9.845745933882352 0.0
0.7108351382691361 6.537941170074089 0.0
1.527735020267026 6.915620208855231 0.0
1.630993885659103 7.838271825205868 0.0
2.232760943566823 7.370850737296832 0.0
2.243414218068206 6.688299277952821 0.0
2.779655053105118 7.021588754814074 0.0
2.80227799359795 7.632420170547022 0.0
3.282022065908813 7.305859666021318 0.0
3.327597298795347 7.857554136825748 0.0
3.743210251018715 7.549183328204379 0.0
3.716353232200752 7.062036086888612 0.0
4.111978858674101 7.27497101169417 0.0
4.104192177581432 6.879858986267289 0.0
4.436230765617037 7.045693351607117 0.0
4.430360014817357 6.703971783962796 0.0
4.732390145036301 6.849841042423394 0.0
5.056161327708878 5.095276573498806 0.0
5.111586796021131 4.999081142133581 0.0
5.169267363407189 5.09444870412406 0.0
5.223795108752053 4.996986220359468 0.0
5.281480803887719 5.092780870372803 0.0
5.335670761900611 4.994887492556936 0.0
5.393485214772442 5.090486192743301 0.0
5.447323082877892 4.992601527033996 0.0
5.505243219343024 5.087953380710069 0.0
5.558739102026105 4.990287787962959 0.0
5.616491581184779 5.085335255235766 0.0
5.669852346908056 4.9879269227514 0.0
5.727502713908907 5.082679981817038 0.0
5.780766004135139 4.988313988715834 0.0
5.838244881129535 5.080480568766611 0.0
5.891357695677371 4.986433849408193 0.0
5.948696036767613 5.077969900389505 0.0
6.001601341641615 4.981313698556656 0.0
6.058851024265095 5.074871552128682 0.0
6.111614020704875 4.978360695880202 0.0
6.168801161530775 5.072044953270978 0.0
6.221368818778567 4.975825765213497 0.0
6.278268309066882 5.066182320461055 0.0
6.330814273567539 4.972837984645718 0.0
6.387565032421376 5.062889771971895 0.0
6.437476667631405 4.971693683589553 0.0
[...]
POINT_DATA 2538
VECTORS disp float
1.3312788139469142e-11 2.714714738372413e-11 0.0
1.7701038588774486e-11 -4.322303381052754e-11 0.0
0.002399999997907378 7.485877048111034e-12 0.0
0.00239999997346243 -6.797007525860379e-11 0.0
0.0009126870796241916 0.0003709590966644575 0.0
0.001767476701888085 6.835942652086842e-5 0.0
0.0012284374456437588 2.4519411727024172e-5 0.0
6.178334972275521e-13 -2.41338095741885e-12 0.0
3.7341382948914076e-12 2.8446344089754075e-12 0.0
2.7720938597914948e-12 3.471023772178403e-13 0.0
2.41230815246953e-12 4.2100815237138165e-13 0.0
1.7428223744094809e-12 1.5729055711808798e-13 0.0
1.5707513063545262e-12 -2.7095586318665333e-13 0.0
1.2865283341761337e-12 -4.80804851245669e-13 0.0
1.1060474321975306e-12 -9.184461554256576e-13 0.0
7.962041148898349e-13 -1.385673993496916e-12 0.0
1.015361023015676e-12 -1.9939233830728562e-12 0.0
9.982215584150728e-13 -2.63882574258856e-12 0.0
1.1381996956812645e-12 -3.3188448397856725e-12 0.0
1.3086109297969819e-12 -3.991010380540073e-12 0.0
1.3697269967442504e-12 -4.4661903427834604e-12 0.0
1.6465762120095632e-12 -5.145729642271054e-12 0.0
1.6848610087450953e-12 -5.4971183283779e-12 0.0
1.831821669753414e-12 -6.087850130904118e-12 0.0
2.0243648802618482e-12 -6.610313265602294e-12 0.0
2.0831316163903576e-12 -7.092092859024202e-12 0.0
2.2556835609477023e-12 -7.712745388910687e-12 0.0
2.4914913526530125e-12 -8.39872005579614e-12 0.0
2.8174033383000452e-12 -9.305362579985809e-12 0.0
2.78556272510452e-12 -1.0258913260267268e-11 0.0
4.2745731068269965e-12 -1.3308412949251688e-11 0.0
1.60216859712211e-12 -1.0145232681344627e-11 0.0
3.362625070910627e-5 -3.079339587233594e-5 0.0
5.881643176238297e-5 -5.2132573622592204e-5 0.0
8.310250205848885e-5 -7.074465754945854e-5 0.0
0.00010589661215998224 -8.758054560133638e-5 0.0
0.00012760749613117207 -0.00010320973827030452 0.0
0.0001486866483335439 -0.00011818099663125388 0.0
0.00016951552300703394 -0.00013241531762886886 0.0
0.00018986345550358203 -0.0001461069200948739 0.0
0.00020996027752770996 -0.00015941127445797917 0.0
0.0002299031491122802 -0.0001722726446004262 0.0
0.0002496676201785749 -0.00018485278793334113 0.0
0.00026947414477475795 -0.0001971029615871549 0.0
0.0002891984050609321 -0.00020902509644856636 0.0
0.00030891993380797154 -0.00022075322665438652 0.0
0.0003287463308673572 -0.00023218694339396717 0.0
0.0003485112156494003 -0.00024332286483426166 0.0
0.0003683717364945097 -0.00025426369930092697 0.0
0.0003883632735195942 -0.0002649013509334095 0.0
0.00040844206660003497 -0.0002753247805911154 0.0
0.0004286388585045415 -0.0002855349743412741 0.0
0.00044896109639403593 -0.000295527748893588 0.0
0.00046940424150992077 -0.0003052995257624686 0.0
0.0004900920291966809 -0.00031487754258813726 0.0
0.000510806680632514 -0.00032423449556991525 0.0
0.0005318308477957689 -0.00033338504887083143 0.0
0.0005528659698963936 -0.00034230630605643146 0.0
0.0005741354489676658 -0.0003510389458168898 0.0
0.0005955512899929377 -0.0003595241506958875 0.0
0.000617237102247487 -0.0003678145710427268 0.0
0.0006389504111602687 -0.00037591254405755026 0.0
0.0006609633724445283 -0.0003838077570068423 0.0
0.0006831395667166025 -0.00039147297150819705 0.0
0.0007055601560477659 -0.00039899261537738856 0.0
0.0007281641658785177 -0.0004063412382621862 0.0
0.0007510234719023143 -0.0004135935549256101 0.0
0.0007739053670633285 -0.0004206334865631988 0.0
0.000797124951489813 -0.00042748622837572125 0.0
0.000820351711745346 -0.00043398867688161115 0.0
0.0008436691120721886 -0.0004401562171448838 0.0
0.0008671862068786137 -0.0004461470154277651 0.0
0.0008907132611389983 -0.0004517601893197487 0.0
0.000914547842324544 -0.0004571349702575978 0.0
0.000938627335999444 -0.00046217705877336224 0.0
0.0009628957606992686 -0.0004670346974079733 0.0
0.000987454528614044 -0.00047152984425403836 0.0
0.001012092286582265 -0.00047579832012737794 0.0
0.0010370213731661206 -0.0004798517969234639 0.0
0.001062097140555638 -0.00048359616587537104 0.0
0.0010873016856761586 -0.0004872240092963897 0.0
0.0011127323149025502 -0.0004905018931298445 0.0
0.0011381022197107338 -0.0004934243060092374 0.0
0.0011637170021259605 -0.0004961773538095734 0.0
0.001189088654650006 -0.0004985688550049628 0.0
0.001214889343448748 -0.0005006749608031133 0.0
0.0012403189425297797 -0.0005024364462138295 0.0
0.0012662949623835147 -0.0005039898772791982 0.0
0.00129185552040483 -0.0005053653889206417 0.0
0.0013173326856330198 -0.0005063693144061271 0.0
0.001342738527458843 -0.0005071757036088216 0.0
0.0013679808580974238 -0.0005073963114182401 0.0
0.001393025719031472 -0.0005072489834132618 0.0
0.0014180680116560537 -0.0005063142323377341 0.0
0.001443045103842446 -0.0005048985031434381 0.0
0.0014665215643260689 -0.0005024755431800919 0.0
0.0014902404944191654 -0.0005000994543843363 0.0
0.0015148022034112698 -0.0004975013160588953 0.0
0.001538196802931193 -0.0004942723560645939 0.0
0.0015611463564766705 -0.0004903586703657243 0.0
0.0015847398297143904 -0.0004855337700952079 0.0
0.0016089097717625503 -0.00048067395450188474 0.0
0.0016322886634286592 -0.00047549168286595755 0.0
0.0016571479377498353 -0.00047023555928593457 0.0
0.0016806471454485577 -0.000464691292741737 0.0
0.0017040077436397839 -0.0004585517681748547 0.0
0.0017282269651891916 -0.000451505430847256 0.0
0.001751303992111723 -0.0004436822210441442 0.0
0.0017750486044439931 -0.00043506836436101547 0.0
0.0017983907700899007 -0.0004258171283786775 0.0
0.0018221360807100472 -0.00041591859444623744 0.0
0.0018458759530953076 -0.00040507962300210626 0.0
0.0018701509635870946 -0.00039378313511545445 0.0
0.0018940648587353385 -0.00038178033881103524 0.0
0.0019180151398096549 -0.00036908584241969656 0.0
0.0019422677957568434 -0.0003554861612078323 0.0
0.0019665657139722086 -0.0003412319329019222 0.0
0.0019911321515840344 -0.0003265098155336826 0.0
0.0020163158233949398 -0.0003110374652438295 0.0
0.0020416409696181557 -0.0002949581252021399 0.0
0.0020670713164945673 -0.00027833107933250274 0.0
0.0020929863840467326 -0.000260977110944391 0.0
0.002119474045901663 -0.0002427467006634604 0.0
0.002146318599550061 -0.00022369457420363636 0.0
0.002173531024144872 -0.00020385464202223746 0.0
0.0022013846027610345 -0.00018293707621633252 0.0
0.0022302944127617695 -0.0001606277124142963 0.0
0.002259885156216582 -0.0001367519804587485 0.0
0.0022904781567288676 -0.0001107621068077113 0.0
0.0023233480201352032 -8.144460031968112e-5 0.0
0.002357574609026227 -4.74425800249736e-5 0.0
0.0023999999972106447 -1.2471591637954605e-11 0.0
0.0023999999937121446 -1.4769381206863346e-11 0.0
0.0023999999968413784 -7.027257791510011e-12 0.0
0.0023999999965076814 -6.004250746817636e-12 0.0
0.002399999996956991 -4.3301162920159336e-12 0.0
0.0023999999970059924 -3.2884869599593916e-12 0.0
0.0023999999970260076 -2.5808247370527855e-12 0.0
0.0023999999971476504 -2.0263749091322424e-12 0.0
0.002399999997152044 -1.5262641318769257e-12 0.0
0.002399999997256765 -1.1322113600483648e-12 0.0
0.0023999999973415777 -8.424621941215763e-13 0.0
0.0023999999974565413 -4.831007792305307e-13 0.0
0.002399999997519846 -2.1316545089173383e-13 0.0
0.0023999999976127206 1.4365018388033252e-13 0.0
0.0023999999976677656 5.056229394940569e-13 0.0
0.002399999997702905 9.435196905921874e-13 0.0
0.002399999997743969 1.3990353360107536e-12 0.0
0.002399999997593822 1.968176599043166e-12 0.0
0.0023999999978195083 2.4101007830166044e-12 0.0
0.002399999997558958 2.993565706250505e-12 0.0
0.0023999999976626932 3.3719439756469422e-12 0.0
0.002399999997617961 3.644198354010308e-12 0.0
0.002399999997771375 3.5942186612786255e-12 0.0
0.002399999998233847 4.03308924518739e-12 0.0
0.0023999999990212883 2.2360349978310417e-12 0.0
0.0022351196684250833 6.371216825918485e-5 0.0
0.002091577692402244 9.213869338339714e-5 0.0
0.0019619994010557254 9.009937316019586e-5 0.0
0.0018463614900503253 7.522416344629015e-5 0.0
0.001765836747225265 -2.9791431067848568e-6 0.0
0.0017603048928084627 -4.408922620357111e-5 0.0
0.001746454528717659 -8.028290428894143e-5 0.0
0.0017182891192371714 -9.478568865168805e-5 0.0
0.0016777335052488027 -9.195288457693377e-5 0.0
0.001632672623263455 -8.070358990393893e-5 0.0
0.0015852907917540931 -6.558108378704811e-5 0.0
0.0015372412186800278 -4.7440686787043665e-5 0.0
0.001487792247785021 -2.9903808150410437e-5 0.0
0.001436869618259762 -1.3885885847545498e-5 0.0
0.0013814988242919519 6.775723807228599e-7 0.0
0.0013163196283373074 1.3415660414785512e-5 0.0
0.0011646105379822783 6.601648030029834e-5 0.0
0.0011187575848657454 8.6239304621972e-5 0.0
0.001080380271493467 0.00010064221146501224 0.0
0.0010464942513465393 0.00011326949539646479 0.0
0.0010153785998287285 0.00012524442916966012 0.0
0.0009871354050265898 0.00013725592383714415 0.0
0.0009614589667148533 0.00015017082147664846 0.0
0.0009393356906900945 0.00016404841562715221 0.0
0.0009222807468300851 0.00018337440055455636 0.0
0.000909589620813839 0.00020390323871566685 0.0
0.0009113968407829626 0.0002448672005048292 0.0
0.0009090303468310514 0.00029285576994000516 0.0
0.0008256202312901139 0.00038576485659371927 0.0
0.0007045710777169881 0.0003840433940993842 0.0
0.0005185797505933019 0.0003237032860125809 0.0
0.00028475356265413525 0.0002109453118766103 0.0
0.0006201175236651412 -0.0003545889363807204 0.0
0.0016265227236702637 -0.00044854413250352133 0.0
0.0007796305728526579 -0.0004085028379332208 0.0
0.0014577972101632209 -0.00048513853162786443 0.0
0.0009493004670715426 -0.0004496677827807124 0.0
0.0012752784716145793 -0.0004850522412634119 0.0
0.0010985519550530958 -0.0004719315676725558 0.0
0.0017718331394046016 -0.00040798016560388744 0.0
0.0004960367055260329 -0.0003060252447900543 0.0
0.0018862826063615206 -0.00035625694796392405 0.0
0.00039341213401125396 -0.00025722171468614655 0.0
3.7662031459838396e-5 -8.247937651298133e-6 0.0
0.002352761571749045 -2.1496625804573217e-6 0.0
0.001316499641346868 3.612492418187421e-5 0.0
0.0015023721005604335 -2.059676917765562e-5 0.0
0.0011354709576526258 6.055712377034767e-5 0.0
0.001007866439451302 0.0001296496707187603 0.0
0.0020113268790239226 -0.0002905501055288507 0.0
0.00029775709702571147 -0.00020546935132308782 0.0
3.0348971338508197e-5 -1.0879378003338573e-5 0.0
0.002365678109095841 -4.652877113291793e-6 0.0
0.002334547674623487 3.73126191566048e-6 0.0
4.70594738301246e-5 -5.598119023056573e-7 0.0
0.0021149394748348448 -0.00022339191180944972 0.0
0.00021522029611847112 -0.0001530853257503685 0.0
0.0016362085297330136 -6.152233821141792e-5 0.0
0.0009182021578593141 0.000165954929067541 0.0
2.425658958481267e-5 -1.0211642043055366e-5 0.0
0.0023730574251138816 -5.750012213245509e-6 0.0
0.0008774327154757063 -0.0004338683034711042 0.0
0.001022523030829096 -0.0004620743005092847 0.0
0.0013808662595025506 -0.00048822277732920335 0.0
0.001177062883831833 -0.0004784427408995308 0.0
0.00153044847242621 -0.00047368572788123717 0.0
0.0016940975259670656 -0.0004336511883978656 0.0
0.0007159546895057847 -0.00038896466321713366 0.0
0.0005585970894310992 -0.00033316284710408975 0.0
0.0021931197309309524 -0.00016848939249475078 0.0
0.00015324684971270566 -0.00011231513017550214 0.0
0.0023180069562385368 1.2278816399161234e-5 0.0
6.540417542133462e-5 6.622486768617269e-6 0.0
0.002378309132128693 -8.336692011749706e-6 0.0
2.3189066390806526e-5 -1.1416720847259025e-5 0.0
0.0017279468217945482 -6.922796281481699e-5 0.0
0.0008766770707919161 0.00019708971484504048 0.0
0.002286332713456253 1.8529769918987226e-5 0.0
0.00010202641383450594 1.4226959909049009e-5 0.0
3.439374845039959e-5 -1.0443374566002104e-5 0.0
0.0023588859928759115 -3.937664146277499e-6 0.0
0.0014091476162549465 1.0469318682095401e-5 0.0
0.0010725096580283494 0.0001031561449958227 0.0
8.647061191414665e-5 -6.344555875876227e-5 0.0
0.0022882796451963697 -9.42404356821152e-5 0.0
0.001576461401646337 -0.0004652274716300671 0.0
0.001226311779555421 -0.00048306672581739055 0.0
0.0008315345000264753 -0.0004222754876248045 0.0
0.0006670720880984807 -0.0003735938463983249 0.0
0.0013298523628706154 -0.0004872333727568509 0.0
0.0018155362475328926 -0.0003907540849031268 0.0
0.0004549913622881569 -0.0002868297355958565 0.0
0.001937306381276265 -0.0003323670182482801 0.0
0.00035112854292118905 -0.00023438183288815716 0.0
0.0002545791860835032 -0.00017862274133297328 0.0
0.0020625888993157713 -0.0002579515961261069 0.0
0.0005947710720649514 0.00020193141887765487 0.0
0.0020035536423935927 3.653368714993227e-5 0.0
0.002377922475498847 -1.3240085680828636e-5 0.0
2.0163899810582984e-5 -1.1445244510137243e-5 0.0
0.000865813040724485 0.0002612547750611519 0.0
0.001787773963400744 -2.1879645084965674e-5 0.0
0.0001286266997169807 2.42468200341362e-5 0.0
0.0022910135318866694 1.7049395409047903e-5 0.0
3.824169866736624e-5 -2.7343285035000423e-5 0.0
0.0023509381018166574 -4.114654413147204e-5 0.0
0.0018922391135761717 2.4187750656552645e-5 0.0
0.0019082226356893883 1.3047807490709007e-5 0.0
0.002049365950231402 2.5168348405640774e-5 0.0
0.001955487816590273 2.1769661451947794e-5 0.0
0.0018446012590034434 1.6480178174478855e-6 0.0
0.0018731923009587253 2.2892549047307517e-5 0.0
0.001982100447076753 3.46856141078889e-5 0.0
0.0019058714660460689 4.069674477841423e-5 0.0
0.00201186708964062 4.3640819937531874e-5 0.0
0.0019426795881952342 5.005059238959907e-5 0.0
0.0018436650182508947 4.786319509280004e-5 0.0
0.0018789785889088506 5.468003249166524e-5 0.0
0.001794023964383957 5.448134628867171e-5 0.0
0.0018242950518207411 5.6917538578738096e-5 0.0
0.0017483225850318566 5.8575759302694044e-5 0.0
0.001776832319272447 5.673041275065632e-5 0.0
0.0012873686079526165 1.6006528834460905e-5 0.0
0.0012172764301689614 3.053293101023331e-6 0.0
0.0012658744127013967 8.125167922326031e-7 0.0
0.0012078900856646684 -9.964443521761762e-6 0.0
0.0012511224988766638 -1.199778250296097e-5 0.0
0.001200817317180234 -2.0444891159630793e-5 0.0
0.0012398908098681233 -2.1906066920917216e-5 0.0
0.0011942542955943939 -2.92122764333804e-5 0.0
0.0012305952040179377 -3.0194524721050372e-5 0.0
0.0011882351238466649 -3.6832168276007924e-5 0.0
0.0012226849947991466 -3.7327730177192476e-5 0.0
0.0011827167566412669 -4.3609707408003414e-5 0.0
0.0012158007082844781 -4.412699438334917e-5 0.0
0.001178606884064087 -4.997268403042685e-5 0.0
0.001209705786724907 -5.044322528240575e-5 0.0
0.001173832787847866 -5.617125278358993e-5 0.0
0.0012039658084153611 -5.655815559535511e-5 0.0
0.001168189572485748 -6.229870452352832e-5 0.0
0.001198475881995041 -6.271286471419653e-5 0.0
0.0011636220438418778 -6.83208885458547e-5 0.0
0.0011934976546030653 -6.89187857217462e-5 0.0
0.0011593751996071648 -7.442853049505048e-5 0.0
0.0011877813757388027 -7.518904823364756e-5 0.0
0.0011550421122635689 -8.067617517118097e-5 0.0
0.001183074622170536 -8.156112030586041e-5 0.0
0.0011514785546075236 -8.688101698387366e-5 0.0
0.0011786725938664386 -8.810842081703026e-5 0.0
0.0011461392465032365 -9.316535408209872e-5 0.0
0.0011740361453783784 -9.485612866881974e-5 0.0
0.0011348471189755044 -0.00010050331097466495 0.0
0.0011714874537565368 -0.00010180234845709118 0.0
0.0011380173423187923 -0.00010740898502323145 0.0
0.0011672189235832269 -0.00010902980208121385 0.0
0.0011353831778401749 -0.00011468878515407546 0.0
0.0011635073110705556 -0.00011653990337729162 0.0
0.0011337277244090579 -0.00012206540353882961 0.0
0.0011597677373224825 -0.00012425564551083474 0.0
0.0011306978444638304 -0.00012990305490918091 0.0
0.0011539385408801265 -3.4096286779457115e-5 0.0
0.0011560700515903404 -0.00013226195984159789 0.0
0.0011331935068788234 -6.720297769395555e-5 0.0
0.0011039059821741715 -0.0001079358964118873 0.0
0.001125528300157561 -0.00013802772656194072 0.0
0.0011522340359871486 -0.00014055299934129085 0.0
0.001120430586100488 -0.000146692126083188 0.0
0.0010944249977861095 -0.0001432915534152924 0.0
0.0010885725543368194 -0.0001523069553785152 0.0
0.0011472129073721244 -0.00014966584026412754 0.0
0.001179527941753018 -0.00014312503127194697 0.0
0.001197950748516643 -0.00010309908301372318 0.0
0.0011746775808822733 -0.00015259717807814118 0.0
0.0012091794346384003 -0.00014497495972436112 0.0
0.0012030824745063917 -0.00015550988385870055 0.0
0.0010629136959346833 -0.0001485951822106298 0.0
0.001058335123418049 -0.00015726655803851203 0.0
0.0012387971273416138 -0.00014724878265426087 0.0
0.001031015777664531 -0.00015328374661804743 0.0
0.0010282186857123819 -0.00016218980544066339 0.0
0.0012332791596269949 -0.0001580065355262601 0.0
0.0012678759092923494 -0.0001502307951933909 0.0
0.0009990071413306762 -0.00015783910369831204 0.0
0.0009955593897463383 -0.00016690497818613013 0.0
0.0012631278281640902 -0.00016100989556169573 0.0
0.0012988280506752103 -0.00015275730659654974 0.0
0.0009672485809390953 -0.00016215219673936193 0.0
0.0009635384459355061 -0.00017163949954802896 0.0
0.001293862803054356 -0.00016421181157402965 0.0
0.0013307299155816115 -0.00015520593223762046 0.0
0.0009359280354039901 -0.00016576794711567174 0.0
0.000930277625416704 -0.00017545544452265396 0.0
0.0013261089568431656 -0.000167034788730363 0.0
0.001363365068296808 -0.0001575401898115657 0.0
0.0009016852419697998 -0.00016920086264570492 0.0
0.0008969232839207271 -0.00017924824838812096 0.0
0.0008664831146415261 -0.0001729412204800445 0.0
0.0008713247862243678 -0.00016245420549542054 0.0
0.0012861850782188542 -0.00017567692364819823 0.0
0.001358462373386833 -0.00016997329637563713 0.0
0.0013966665847315424 -0.0001598321053014321 0.0
0.001402306432416311 -0.0001469692024066193 0.0
0.0012196739997428474 -6.9851037525381e-5 0.0
0.0014371688535392635 -0.00014890435581363322 0.0
0.0014432393404708822 -0.0001355176882790611 0.0
0.0014794362575893346 -0.00013693490440569315 0.0
0.0008644659443244549 -0.00018361187535734772 0.0
0.0008327353640278708 -0.00017601846978724451 0.0
0.0008944368615705345 -0.0001900488906276737 0.0
0.0013905682091002627 -0.0001731035886263649 0.0
0.000831289405501186 -0.00018686087527486264 0.0
0.0007991563772302959 -0.00017850794133310928 0.0
0.0012475005337952152 -4.3562462637703206e-5 0.0
0.000797874226373304 -0.0001889827318720547 0.0
0.0007656966914474119 -0.00018030958153988154 0.0
0.000764719942673403 -0.00019092007051155804 0.0
0.0007329891210236737 -0.000181294231480518 0.0
0.0007332606205750913 -0.00017105507551703458 0.0
0.0006984232756047381 -0.00017209153110313513 0.0
0.000699255339871086 -0.0001613301712538605 0.0
0.0007283480183323286 -0.00019158277564180977 0.0
0.0006617049135237205 -0.00016215439775390522 0.0
0.0006622435195339161 -0.00015118491593843036 0.0
0.000764236692443934 -0.00020216682825071962 0.0
0.0007333757411520966 -0.00020372974238554723 0.0
0.0006255114583747461 -0.00015091260837123935 0.0
0.0006246232815222991 -0.00014008863445083455 0.0
0.001486540987158413 -0.00012334971161618414 0.0
0.001524328194874024 -0.00012451060085237687 0.0
0.0007639195493504917 -0.000213627147073037 0.0
0.0007336499533386565 -0.00021501151458162783 0.0
0.0015318641319315182 -0.00011052055519173073 0.0
0.001571524221386948 -0.00011172505665363733 0.0
0.0015620522528908285 -0.00012724338850211717 0.0
0.0016097098270994286 -0.00011369429482805914 0.0
0.001600910082642542 -0.00012962094706025752 0.0
0.0016487890123283333 -0.00011494617169150153 0.0
0.001642284740236325 -0.0001307631140275146 0.0
0.0016919327168733944 -0.00011451229279354712 0.0
0.001681456821398143 -0.00013096648999671775 0.0
0.0016980771223102386 -9.952908602446083e-5 0.0
0.001731609516363043 -0.00011503154888710428 0.0
0.001718729389671666 -0.00013170939678443567 0.0
0.0007641911531378752 -0.00022537688523499946 0.0
0.0005857753185909971 -0.0001392016385866616 0.0
0.0005839304891211226 -0.0001279689852893847 0.0
0.0016722690782268708 -0.0001482198302141156 0.0
0.001708086889824561 -0.0001489579165400965 0.0
0.0017537809700738233 -0.00013224904383850103 0.0
0.0016645876832273698 -0.00016614059942331795 0.0
0.0007348132596171834 -0.00022674168661816508 0.0
0.001743218325076124 -0.00014953520106386528 0.0
0.0017879026798293296 -0.00013239029015615767 0.0