# vtk DataFile Version 2.0
phase field modeling fracture
ASCII
DATASET UNSTRUCTURED_GRID
POINTS 2538 float
0.0 0.0 0.0
10.0 0.0 0.0
0.0 10.0 0.0
10.0 10.0 0.0
0.0 4.9995 0.0
0.0 5.0005 0.0
5.0 5.0 0.0
0.9416964895726688 0.0 0.0
1.803581725054446 0.0 0.0
2.592419885431098 0.0 0.0
3.314401822861676 0.0 0.0
3.975193910351406 0.0 0.0
4.579982132660152 0.0 0.0
5.133512780936812 0.0 0.0
5.640130319506143 0.0 0.0
6.103810708661955 0.0 0.0
6.528192895506818 0.0 0.0
6.916607540127679 0.0 0.0
7.272102969376355 0.0 0.0
7.597469242948583 0.0 0.0
7.895259826292669 0.0 0.0
8.167811885738017 0.0 0.0
8.417264413845215 0.0 0.0
8.645575169389538 0.0 0.0
8.854535961159101 0.0 0.0
9.045786767735546 0.0 0.0
9.220828555767493 0.0 0.0
9.38103509633881 0.0 0.0
9.527663687265145 0.0 0.0
9.661865124984566 0.0 0.0
9.784692609918062 0.0 0.0
9.897110148790482 0.0 0.0
10.0 0.09999999999992584 0.0
10.0 0.199999999999856 0.0
10.0 0.2999999999997771 0.0
10.0 0.3999999999996677 0.0
10.0 0.4999999999995511 0.0
10.0 0.5999999999994683 0.0
10.0 0.6999999999993983 0.0
10.0 0.7999999999993286 0.0
10.0 0.8999999999992587 0.0
10.0 0.9999999999991888 0.0
10.0 1.099999999999119 0.0
10.0 1.199999999999033 0.0
10.0 1.299999999998852 0.0
10.0 1.399999999998576 0.0
10.0 1.499999999998284 0.0
10.0 1.599999999997992 0.0
10.0 1.6999999999977 0.0
10.0 1.799999999997408 0.0
10.0 1.899999999997116 0.0
10.0 1.999999999996825 0.0
10.0 2.099999999996533 0.0
10.0 2.199999999996241 0.0
10.0 2.299999999995949 0.0
10.0 2.399999999995657 0.0
10.0 2.499999999995365 0.0
10.0 2.599999999995073 0.0
10.0 2.699999999994782 0.0
10.0 2.79999999999449 0.0
10.0 2.899999999994198 0.0
10.0 2.999999999993906 0.0
10.0 3.099999999993614 0.0
10.0 3.199999999993322 0.0
10.0 3.299999999993029 0.0
10.0 3.399999999992738 0.0
10.0 3.499999999992446 0.0
10.0 3.599999999992154 0.0
10.0 3.699999999991863 0.0
10.0 3.799999999991571 0.0
10.0 3.899999999991278 0.0
10.0 3.999999999991022 0.0
10.0 4.099999999991035 0.0
10.0 4.199999999991187 0.0
10.0 4.299999999991338 0.0
10.0 4.399999999991491 0.0
10.0 4.499999999991642 0.0
10.0 4.599999999991795 0.0
10.0 4.699999999991947 0.0
10.0 4.799999999992099 0.0
10.0 4.89999999999225 0.0
10.0 4.999999999992403 0.0
10.0 5.099999999992555 0.0
10.0 5.199999999992706 0.0
10.0 5.299999999992858 0.0
10.0 5.39999999999301 0.0
10.0 5.499999999993161 0.0
10.0 5.599999999993313 0.0
10.0 5.699999999993466 0.0
10.0 5.799999999993618 0.0
10.0 5.899999999993771 0.0
10.0 5.999999999993922 0.0
10.0 6.099999999994074 0.0
10.0 6.199999999994227 0.0
10.0 6.299999999994378 0.0
10.0 6.39999999999453 0.0
10.0 6.499999999994682 0.0
10.0 6.599999999994833 0.0
10.0 6.699999999994986 0.0
10.0 6.799999999995138 0.0
10.0 6.899999999995289 0.0
10.0 6.999999999995442 0.0
10.0 7.099999999995594 0.0
10.0 7.199999999995747 0.0
10.0 7.299999999995897 0.0
10.0 7.39999999999605 0.0
10.0 7.499999999996202 0.0
10.0 7.599999999996353 0.0
10.0 7.699999999996505 0.0
10.0 7.799999999996658 0.0
10.0 7.899999999996808 0.0
10.0 7.999999999996962 0.0
10.0 8.099999999997113 0.0
10.0 8.199999999997265 0.0
10.0 8.299999999997418 0.0
10.0 8.399999999997569 0.0
10.0 8.499999999997721 0.0
10.0 8.599999999997873 0.0
10.0 8.699999999998024 0.0
10.0 8.799999999998176 0.0
10.0 8.899999999998329 0.0
10.0 8.99999999999848 0.0
10.0 9.099999999998634 0.0
10.0 9.199999999998786 0.0
10.0 9.299999999998937 0.0
10.0 9.399999999999089 0.0
10.0 9.499999999999241 0.0
10.0 9.599999999999392 0.0
10.0 9.699999999999545 0.0
10.0 9.799999999999697 0.0
10.0 9.899999999999848 0.0
9.897110148790565 10.0 0.0
9.784692609918244 10.0 0.0
9.66186512498486 10.0 0.0
9.527663687265571 10.0 0.0
9.381035096339392 10.0 0.0
9.220828555768257 10.0 0.0
9.045786767736512 10.0 0.0
8.854535961160305 10.0 0.0
8.645575169391027 10.0 0.0
8.417264413847017 10.0 0.0
8.167811885740178 10.0 0.0
7.895259826295246 10.0 0.0
7.597469242951631 10.0 0.0
7.272102969379938 10.0 0.0
6.916607540131873 10.0 0.0
6.528192895511704 10.0 0.0
6.103810708667616 10.0 0.0
5.640130319512691 10.0 0.0
5.13351278094435 10.0 0.0
4.579982132668816 10.0 0.0
3.975193910361222 10.0 0.0
3.314401822869852 10.0 0.0
2.592419885437257 10.0 0.0
1.803581725058137 10.0 0.0
0.9416964895740705 10.0 0.0
0.0 9.00010000000243 0.0
0.0 8.000200000005481 0.0
0.0 7.000300000005135 0.0
0.0 6.000400000002569 0.0
0.901790731451151 5.000409820926855 0.0
1.657200899774397 5.000334279910023 0.0
2.289991063707192 5.000271000893629 0.0
2.820065163538221 5.000217993483646 0.0
3.264096435579811 5.000173590356442 0.0
3.636051481595835 5.00013639485184 0.0
3.947629914072366 5.000105237008593 0.0
4.208632181002628 5.0000791367819 0.0
4.427267949625672 5.000057273205037 0.0
4.610414277633563 5.000038958572237 0.0
4.763831845154243 5.000023616815485 0.0
4.892346298799659 5.00001076537012 0.0
4.892346298799748 4.99998923462988 0.0
4.763831845154455 4.999976383184515 0.0
4.610414277633943 4.999961041427763 0.0
4.427267949626277 4.999942726794963 0.0
4.208632181003523 4.9999208632181 0.0
3.94762991407365 4.999894762991407 0.0
3.636051481597624 4.99986360514816 0.0
3.264096435582253 4.999826409643559 0.0
2.820065163541503 4.999782006516354 0.0
2.289991063711534 4.999728999106371 0.0
1.657200899778495 4.999665720089978 0.0
0.9017907314530094 4.999590179073145 0.0
0.0 3.999600000002013 0.0
0.0 2.999700000005187 0.0
0.0 1.99980000000512 0.0
0.0 0.9999000000025537 0.0
9.897889398521345 2.93573355845387 0.0
9.906568249974548 7.060009441434234 0.0
9.913122631074113 3.64016132281653 0.0
9.922462129543863 6.354535290629151 0.0
9.917693659967533 4.354211663134567 0.0
9.909873057440208 5.637584487339942 0.0
9.914183254994697 4.950672966925282 0.0
9.913885043715895 7.666887930262611 0.0
9.91009668007573 2.351889069770817 0.0
9.905135696074536 8.138152454502785 0.0
9.913397459621809 1.849999999997262 0.0
7.099302372137626 0.297750452375005 0.0
7.095143729410097 9.700359990366296 0.0
4.942912558701401 5.095838627899509 0.0
4.315009232304429 5.165022115481685 0.0
4.946182472483878 4.906763777264103 0.0
4.317967462990024 4.825955043772673 0.0
9.916390871492647 8.64999999999792 0.0
9.921504649680616 1.368376469890358 0.0
8.292538149791614 0.206877570318844 0.0
8.292538149793597 9.793122429681448 0.0
5.884594439766573 9.587645267048616 0.0
5.794826292691579 0.3794853783929359 0.0
9.913397459621425 9.049999999998557 0.0
9.908526577714177 0.9568239351922434 0.0
3.456851160380649 5.315740054130451 0.0
3.457889657868442 4.707121019609468 0.0
8.945214200703926 0.1503383337970344 0.0
8.950161364448409 9.8413906539257 0.0
9.913862335499305 4.055887885208452 0.0
9.916697353372683 4.650158482607802 0.0
9.919076340414442 6.049999999994006 0.0
9.906994308667635 5.25749687748192 0.0
9.917490342358025 6.655979201891897 0.0
9.915757520293784 7.343848891656911 0.0
9.910049507471042 3.363474386285078 0.0
9.914471988502868 2.647400064832979 0.0
9.91474124160965 9.337490423485129 0.0
9.916971008170838 0.6499999999994355 0.0
4.307157269264427 9.509674045029644 0.0
4.331527375865619 0.4401616696422582 0.0
9.45434939180249 9.878397030523757 0.0
9.457696120412969 0.1270877537061785 0.0
2.555070293622606 5.422044496190925 0.0
2.566232917480916 4.608001224030952 0.0
3.026511860837692 9.332320638257093 0.0
2.945561971800619 0.5895662714727601 0.0
7.7395404387124 0.2511088946967771 0.0
7.736379255744154 9.745848826372828 0.0
4.687135269408529 5.122111433928926 0.0
4.688420821504113 4.871895064967488 0.0
9.910554884115975 0.3448356354522978 0.0
9.911230082250466 9.65764729394159 0.0
9.921953841410854 6.851023993342036 0.0
9.912065178606017 5.448170483544033 0.0
9.911660025326261 3.861846960030188 0.0
9.914847467973438 3.14501593945607 0.0
9.913397459621425 5.849999999993703 0.0
9.913397459621425 7.849999999996735 0.0
9.906916878988277 2.15455769998631 0.0
9.913397459621425 8.349999999997479 0.0
9.909472363117661 1.640528221515488 0.0
9.913987325695956 1.152857110636247 0.0
9.913397459621425 8.849999999998241 0.0
0.9100099990995943 2.614215977520411 0.0
0.8395284981715456 7.451196254860987 0.0
9.723278867451556 9.898135916635193 0.0
9.723316350887044 0.09841820909386662 0.0
1.385819164827588 4.454539963646463 0.0
1.338343629665047 5.523111536005823 0.0
1.377179700550677 0.6809168304959698 0.0
1.418060461092743 9.285896715136046 0.0
9.91268220142518 0.1457914080939694 0.0
9.906737126737994 9.845745933882352 0.0
0.7108351382691361 6.537941170074089 0.0
1.527735020267026 6.915620208855231 0.0
1.630993885659103 7.838271825205868 0.0
2.232760943566823 7.370850737296832 0.0
2.243414218068206 6.688299277952821 0.0
2.779655053105118 7.021588754814074 0.0
2.80227799359795 7.632420170547022 0.0
3.282022065908813 7.305859666021318 0.0
3.327597298795347 7.857554136825748 0.0
3.743210251018715 7.549183328204379 0.0
3.716353232200752 7.062036086888612 0.0
4.111978858674101 7.27497101169417 0.0
4.104192177581432 6.879858986267289 0.0
4.436230765617037 7.045693351607117 0.0
4.430360014817357 6.703971783962796 0.0
4.732390145036301 6.849841042423394 0.0
5.056161327708878 5.095276573498806 0.0
5.111586796021131 4.999081142133581 0.0
5.169267363407189 5.09444870412406 0.0
5.223795108752053 4.996986220359468 0.0
5.281480803887719 5.092780870372803 0.0
5.335670761900611 4.994887492556936 0.0
5.393485214772442 5.090486192743301 0.0
5.447323082877892 4.992601527033996 0.0
5.505243219343024 5.087953380710069 0.0
5.558739102026105 4.990287787962959 0.0
5.616491581184779 5.085335255235766 0.0
5.669852346908056 4.9879269227514 0.0
5.727502713908907 5.082679981817038 0.0
5.780766004135139 4.988313988715834 0.0
5.838244881129535 5.080480568766611 0.0
5.891357695677371 4.986433849408193 0.0
5.948696036767613 5.077969900389505 0.0
6.001601341641615 4.981313698556656 0.0
6.058851024265095 5.074871552128682 0.0
6.111614020704875 4.978360695880202 0.0
6.168801161530775 5.072044953270978 0.0
6.221368818778567 4.975825765213497 0.0
6.278268309066882 5.066182320461055 0.0
6.330814273567539 4.972837984645718 0.0
6.387565032421376 5.062889771971895 0.0
6.437476667631405 4.971693683589553 0.0
[...]
POINT_DATA 2538
VECTORS disp float
1.7658970738363238e-11 4.4280213941579124e-11 0.0
3.6297944685615516e-11 -9.905345499112868e-11 0.0
0.004099999986332377 3.5523417941181745e-11 0.0
0.004099999962199504 -1.0428578777299475e-10 0.0
0.0013264780080906344 0.000549965828453977 0.0
0.0029576535272001596 0.00032825286096679267 0.0
0.0020167073155930478 0.00012112667505156222 0.0
4.649937621201577e-12 3.7128912710699044e-12 0.0
8.580130189065055e-12 1.0285013033244406e-11 0.0
7.78030493036302e-12 6.247689283081018e-12 0.0
7.57853564464023e-12 5.77452683927404e-12 0.0
7.038664386457768e-12 4.252594547759273e-12 0.0
6.5500295159337154e-12 3.000710775775419e-12 0.0
6.101305958397122e-12 1.7058655620939033e-12 0.0
5.747804998945262e-12 3.3926443670998536e-13 0.0
5.028013247934981e-12 -1.160827421697922e-12 0.0
5.2994214016930384e-12 -2.498873753399282e-12 0.0
5.0812859279862554e-12 -4.053350953336815e-12 0.0
5.096236667286285e-12 -5.718417130103172e-12 0.0
5.26502641284488e-12 -7.38764520613151e-12 0.0
5.2296349747670916e-12 -8.96204288834626e-12 0.0
5.552181851239008e-12 -1.084817192260448e-11 0.0
5.569867556165772e-12 -1.2432660931892319e-11 0.0
5.900430670900876e-12 -1.4301339286654883e-11 0.0
6.0334869525373085e-12 -1.6415633696609797e-11 0.0
6.3106509485539806e-12 -1.841082205297964e-11 0.0
6.624107335468033e-12 -2.08067883500889e-11 0.0
7.02932137247019e-12 -2.3494788151760412e-11 0.0
7.748315965029034e-12 -2.6759885275974673e-11 0.0
7.811020452875554e-12 -3.0241403609886e-11 0.0
1.0620695157005459e-11 -3.8215579264632086e-11 0.0
4.671772025163081e-12 -3.497535944385742e-11 0.0
5.105992441158659e-5 -6.779589541550445e-5 0.0
8.833409281035418e-5 -0.00011688094735746562 0.0
0.00012447801211642315 -0.00015963712596725555 0.0
0.00015907759658208507 -0.00019847844432950432 0.0
0.00019259782553143873 -0.00023457976269724648 0.0
0.00022572297211781025 -0.00026885077939042384 0.0
0.00025899454032990535 -0.0003014345159804886 0.0
0.0002920967154256805 -0.00033259327500555696 0.0
0.00032531570782751173 -0.000362607070552475 0.0
0.00035873119853868673 -0.0003914811369271067 0.0
0.00039236096055713033 -0.00041945995585568736 0.0
0.00042645432471857163 -0.00044655436652030726 0.0
0.0004607527946669037 -0.00047276371349974525 0.0
0.0004954277104040893 -0.0004982846299444685 0.0
0.0005306831585887877 -0.0005230719304651511 0.0
0.0005661350830885171 -0.0005470954540821103 0.0
0.0006020296663931862 -0.000570496154235451 0.0
0.0006383554639140912 -0.0005931624953751856 0.0
0.0006750842543942361 -0.0006152208399370465 0.0
0.0007122336879581108 -0.0006366663268286555 0.0
0.000749849461403247 -0.0006575014874388977 0.0
0.0007878379636702254 -0.0006777110477225244 0.0
0.0008264255626461151 -0.0006973902630768684 0.0
0.0008652471915487818 -0.0007164217531884345 0.0
0.0009047143524341028 -0.0007349070201791304 0.0
0.0009443838223934008 -0.0007527483143583363 0.0
0.0009845495294163282 -0.0007700533511295859 0.0
0.0010250523545439624 -0.0007867048508047817 0.0
0.0010661206800238465 -0.0008028424016743679 0.0
0.001107363360356057 -0.0008183637443549894 0.0
0.0011491644162024152 -0.000833347434128111 0.0
0.0011912745656768805 -0.0008476826467985979 0.0
0.0012337949994555809 -0.0008614557425061317 0.0
0.0012765802393698638 -0.0008746061926909683 0.0
0.0013198799678163658 -0.0008872011597402549 0.0
0.001363320190482093 -0.0008991304682062294 0.0
0.0014071478899958221 -0.000910468438491191 0.0
0.0014512213388962133 -0.0009211231521025645 0.0
0.0014956067965800348 -0.0009311229917453536 0.0
0.0015402318967970238 -0.0009405509717616926 0.0
0.0015850643317438457 -0.0009492490312410633 0.0
0.001630188731789222 -0.0009573749646989906 0.0
0.001675534030234808 -0.0009647925214136785 0.0
0.0017210026324909786 -0.0009716215728028897 0.0
0.0017666911510723121 -0.000977684540509445 0.0
0.0018123639526452543 -0.000983137875927058 0.0
0.0018582384358140946 -0.0009879376401558384 0.0
0.001904127985755156 -0.000991998064380979 0.0
0.0019500561653326418 -0.000995459941937078 0.0
0.0019961318411630025 -0.0009981785139075887 0.0
0.002041797827740403 -0.001000058304228389 0.0
0.0020878952937651405 -0.0010013712664616455 0.0
0.0021329497243623412 -0.0010018211409917252 0.0
0.0021785123372658477 -0.0010016197370995234 0.0
0.0022219392774747732 -0.0010002465907793378 0.0
0.0022670082055045973 -0.0009982707040387402 0.0
0.002310436334873884 -0.0009954230533783487 0.0
0.0023536888636654213 -0.0009911374945115758 0.0
0.0023969694416434272 -0.000986014452828304 0.0
0.002440321370516445 -0.0009792691800542775 0.0
0.0024836354309390324 -0.0009715920495272542 0.0
0.0025272084002264067 -0.0009625156846455616 0.0
0.0025711176017537904 -0.0009525344448729651 0.0
0.0026151480123365765 -0.0009412721528819539 0.0
0.0026595408482656697 -0.0009291324626555841 0.0
0.0027039717758773145 -0.0009163150450947703 0.0
0.002748139811223016 -0.0009026626113274789 0.0
0.0027922686360722 -0.0008884406001694537 0.0
0.0028363542625508735 -0.0008734944095042329 0.0
0.0028802914330001376 -0.0008578353590405579 0.0
0.002923826393060061 -0.0008416273287361001 0.0
0.002967378703111228 -0.0008246938150501685 0.0
0.003010417976206219 -0.0008071431239761225 0.0
0.003053161737561653 -0.0007891053811253077 0.0
0.003095773901926216 -0.0007703202138473377 0.0
0.0031378293222918967 -0.0007510369823478223 0.0
0.0031796642386580742 -0.0007311478970035816 0.0
0.00322110025199741 -0.000710655412796293 0.0
0.003262295568623881 -0.0006895596232350996 0.0
0.0033031359875840384 -0.0006677749806302436 0.0
0.0033436565652709294 -0.0006453370524961298 0.0
0.0033836431224839804 -0.0006223253917309337 0.0
0.003423394375465868 -0.0005986801887369381 0.0
0.0034628795565943755 -0.0005743145993141055 0.0
0.0035019317103387264 -0.000549258029806236 0.0
0.0035407414247873264 -0.0005235412266780862 0.0
0.003579419660788438 -0.0004969673840744426 0.0
0.0036176917316818173 -0.0004695700514613768 0.0
0.0036556520536225267 -0.00044140097721240057 0.0
0.0036936255819043627 -0.0004122870034458332 0.0
0.003731583264343244 -0.00038207583357100557 0.0
0.0037693080898594427 -0.00035070215108920695 0.0
0.0038069010968737444 -0.00031811869458676207 0.0
0.003844682209772051 -0.00028405240547458557 0.0
0.003883109470484648 -0.00024811335223843525 0.0
0.003921673321020874 -0.00021005672259688288 0.0
0.003960823765485542 -0.00016900828933912902 0.0
0.004002364183098695 -0.0001235882480104105 0.0
0.00404499678658611 -7.147853961888717e-5 0.0
0.004099999994736501 -3.315592068221986e-11 0.0
0.004099999988499031 -3.669531780656991e-11 0.0
0.004099999991801384 -2.5809952907734463e-11 0.0
0.004099999991797863 -2.290460798370989e-11 0.0
0.004099999992338244 -1.951084314782247e-11 0.0
0.0040999999927210885 -1.693833132866253e-11 0.0
0.004099999992875105 -1.4943197424266274e-11 0.0
0.004099999993148245 -1.3144669183279188e-11 0.0
0.004099999993241933 -1.1475102836034646e-11 0.0
0.004099999993410674 -9.850936949884356e-12 0.0
0.004099999993712305 -8.535709166435727e-12 0.0
0.004099999993712928 -6.821969233164526e-12 0.0
0.004099999993871597 -5.538648637250187e-12 0.0
0.004099999993981633 -4.043137318743043e-12 0.0
0.004099999994021656 -2.613565208807411e-12 0.0
0.004099999993996432 -1.1010487652999607e-12 0.0
0.004099999994016886 3.8533540914461003e-13 0.0
0.004099999993455518 2.0600794654789766e-12 0.0
0.004099999993835362 3.4114089124313594e-12 0.0
0.0040999999929185954 5.131668048818897e-12 0.0
0.004099999992905377 6.2666432100336005e-12 0.0
0.0040999999925651785 7.513541804478528e-12 0.0
0.004099999992839785 7.863858922254145e-12 0.0
0.00409999999267374 1.0873638253836459e-11 0.0
0.004099999996137815 4.892381768735911e-12 0.0
0.0037965732553874323 0.00021663893974404163 0.0
0.003532340555869806 0.000315057880928749 0.0
0.003292506477394983 0.00035018672145797745 0.0
0.0030880621053597846 0.00034555292696788787 0.0
0.0029508357809814815 0.00020245816688478402 0.0
0.002929602657922083 0.00013673044244938228 0.0
0.002882278599703363 0.00010938587503293954 0.0
0.0028263082338232668 0.00010135745734560052 0.0
0.002761494014700822 0.00010422997675704628 0.0
0.002691886371103835 0.00010994596336426796 0.0
0.002618497839810962 0.00011626827853213035 0.0
0.002542466443315196 0.00012410941532057094 0.0
0.002462246692142809 0.00013048222035100872 0.0
0.0023770439024632262 0.00013455305077330078 0.0
0.0022826178145638407 0.00013555258913840388 0.0
0.002169806634089812 0.00013485540003405807 0.0
0.0018718329651102525 0.00016115436342395062 0.0
0.0017699133933454932 0.00017367450772075657 0.0
0.0016860075486159593 0.0001786836286153139 0.0
0.0016130755597708083 0.00018204208523862428 0.0
0.0015471848420455735 0.00018528802427129697 0.0
0.0014877599184960814 0.00018937778493500286 0.0
0.0014345788838581526 0.00019572465762706927 0.0
0.001389445767177345 0.00020614314720221276 0.0
0.0013543161741507886 0.00022590111699705346 0.0
0.0013304876355939648 0.0002597915436100927 0.0
0.0013223693997667057 0.00031766932784291836 0.0
0.0013222918919559173 0.0004084300599254392 0.0
0.0011730606010198097 0.0005616081207751396 0.0
0.0009498142372794274 0.000527605408879071 0.0
0.0006614861518724982 0.00043342069424073685 0.0
0.0003502840135757707 0.00028303183123140624 0.0
0.0010744569908337318 -0.0007688702866683948 0.0
0.0029146033576270894 -0.0008029892674940245 0.0
0.0013764403904670604 -0.0008682308673768496 0.0
0.002600641673465565 -0.000906651269755079 0.0
0.0016972017988451597 -0.0009339763794489692 0.0
0.00228544774043357 -0.0009551352809070825 0.0
0.0019720695289694246 -0.000960267451701959 0.0
0.0031741614808650912 -0.0006987564995953664 0.0
0.0008401519556733998 -0.0006742566738113363 0.0
0.0033687726495653905 -0.0005959400722145353 0.0
0.000649919460641591 -0.0005741078374387102 0.0
6.726374460760554e-5 -1.2654068456573151e-5 0.0
0.004031040693072183 -1.1972039669926005e-5 0.0
0.002191586116856265 0.00015396787512612648 0.0
0.002512608674480641 0.00014815242975702017 0.0
0.0018414368901677395 0.0001672483930107223 0.0
0.0015602234616122594 0.00019970550428841284 0.0
0.0035694369032406833 -0.0004763000895441287 0.0
0.0004776196635288785 -0.00046436715525624534 0.0
4.654967140908919e-5 -2.296277644867459e-5 0.0
0.004051715714114515 -2.035610983074657e-5 0.0
0.0040014932869618484 2.8554056616012654e-6 0.0
9.037532691145606e-5 3.3334060380655686e-6 0.0
0.003722951168753322 -0.00036345277693772905 0.0
0.0003356180855525359 -0.00035038219688424794 0.0
0.0027342269130665965 0.00013427479026600656 0.0
0.0013814700640998546 0.00021426716352500552 0.0
3.481024516794348e-5 -2.498631497066209e-5 0.0
0.004061628803133079 -2.312574193966916e-5 0.0
0.0015616846930090506 -0.0009096309933065729 0.0
0.0018331210064208882 -0.0009504101136893365 0.0
0.002466135501631399 -0.0009342805482415169 0.0
0.0021138248174953607 -0.0009614865704826625 0.0
0.0027352856695707826 -0.0008673233221185004 0.0
0.0030368632019578757 -0.0007597717178150511 0.0
0.0012559251151461298 -0.0008337402871659611 0.0
0.0009576678251926254 -0.00072864442836146 0.0
0.0038319053745218407 -0.00027313235011322946 0.0
0.00023370699905395981 -0.00025968756932457564 0.0
0.003974341677797779 2.5301739008629702e-5 0.0
0.00011320859816445456 2.0704284911773163e-5 0.0
0.0040679507631405185 -2.602522561682042e-5 0.0
3.226445491690505e-5 -3.0498238978095344e-5 0.0
0.0028681191523014455 0.0001310537953489446 0.0
0.0012880450262362571 0.0002501331487045201 0.0
0.003923749115709676 4.727648586815814e-5 0.0
0.00015807386080008069 4.12358397376615e-5 0.0
5.6373154056266615e-5 -1.9193636641722824e-5 0.0
0.00404130650890305 -1.7557431473230718e-5 0.0
0.002352916488491741 0.0001567148485736602 0.0
0.0016978892692009835 0.00019394255019754145 0.0
0.00012934989108190944 -0.0001501621952560261 0.0
0.003957052237736485 -0.00015447848684244233 0.0
0.0028212896032941207 -0.000842291102373972 0.0
0.0022007077830362813 -0.0009621968545225901 0.0
0.0014746175829599582 -0.0008909019651328666 0.0
0.0011630889803128954 -0.0008062033150010668 0.0
0.0023785744252779045 -0.000945842628009495 0.0
0.0032502922770463747 -0.0006616705547220555 0.0
0.0007636900570378998 -0.0006350989609584185 0.0
0.0034523997036272147 -0.0005501888945729275 0.0
0.00057319164172783 -0.0005258914655886728 0.0
0.0004025495503945346 -0.00040620269919504603 0.0
0.0036466301000342483 -0.00042115529540457964 0.0
0.000790601181359888 0.0002974104334097933 0.0
0.003401401317975676 0.00023040271376601894 0.0
0.004068826852395169 -3.058344828113684e-5 0.0
2.808099499199675e-5 -3.108148690375179e-5 0.0
0.0012414457539078906 0.0003455894401932245 0.0
0.0029779726270709756 0.00017808050482400527 0.0
0.000180376244102184 6.59434094421569e-5 0.0
0.003918852743539508 6.276355446697838e-5 0.0
5.643680394874834e-5 -6.740403909049626e-5 0.0
0.0040362795587488755 -7.081662190983188e-5 0.0
0.003182454035566078 0.00025363267230292725 0.0
0.0032538587168831896 0.0002049401915747299 0.0
0.003508562533725744 0.00016477387315056005 0.0
0.003363762050987983 0.0001728218305351938 0.0
0.003167587660438237 0.00018751366835286127 0.0
0.0032395532246710314 0.00017975212487186847 0.0
0.003426920661629885 0.00015627599917169971 0.0
0.0033102159678239096 0.00016750913870541706 0.0
0.0034868033334892407 0.00013926983636033933 0.0
0.0033791971938096584 0.0001490197847084021 0.0
0.003213600111026461 0.00017260541236434324 0.0
0.0032770128645406584 0.00015289909238914276 0.0
0.0031344041377460185 0.00017147271484479904 0.0
0.003185738975226914 0.00015020065973392327 0.0
0.003055779221222173 0.0001658670905670301 0.0
0.0031021096166068424 0.00014079226591857553 0.0
0.002140101388294872 0.00010419076400930568 0.0
0.002012209569298551 8.318349048574244e-5 0.0
0.0021124935550452745 7.305541440271033e-5 0.0
0.0020085151078050112 5.7940879588857626e-5 0.0
0.002096276918098505 4.9232580169199804e-5 0.0
0.0020066659237145622 3.758856554609069e-5 0.0
0.0020857922242450986 2.89780138047223e-5 0.0
0.0020047122372802493 1.882856498774368e-5 0.0
0.002078136933241734 1.0610982041680407e-5 0.0
0.0020030041214785994 1.3972683370710423e-6 0.0
0.00207231394103688 -6.379850236154616e-6 0.0
0.002001659496563242 -1.4974831715240685e-5 0.0
0.0020678015254001355 -2.2881506415406517e-5 0.0
0.0020023644601223608 -3.090577284582015e-5 0.0
0.0020642621361108534 -3.87587400492769e-5 0.0
0.002001376109793461 -4.653609648077622e-5 0.0
0.0020610351207672223 -5.425738949518532e-5 0.0
0.001998423643295523 -6.187885691006155e-5 0.0
0.0020578498867900234 -6.95675700010316e-5 0.0
0.0019969795957548472 -7.700338893721639e-5 0.0
0.0020551764587292457 -8.479714659547775e-5 0.0
0.001995796754956031 -9.211038819609498e-5 0.0
0.002050863780829781 -9.992210422294546e-5 0.0
0.00199427875131987 -0.00010729695788842732 0.0
0.0020482711891026116 -0.00011517497708668896 0.0
0.0019938345934394693 -0.0001222267461847109 0.0
0.0020460345943694993 -0.000130532332269606 0.0
0.0019897756559421713 -0.0001366810499164652 0.0
0.002043231004140265 -0.00014599641058300655 0.0
0.0019752683732927 -0.0001523556644166715 0.0
0.0020440815764552955 -0.0001619815386720949 0.0
0.001986778883856133 -0.00016937814505205577 0.0
0.0020415481433032887 -0.00017804378329570585 0.0
0.0019873761903314246 -0.00018587705604370923 0.0
0.0020399199168985773 -0.0001945839824286652 0.0
0.00198947999769338 -0.00020256182618868222 0.0
0.0020380733256981187 -0.00021141199524068245 0.0
0.0019889937238143727 -0.0002198583074236371 0.0
0.0019339933424296566 1.1278047018457454e-5 0.0
0.0020361963389671197 -0.00022872612678556502 0.0
0.0019373224042502038 -6.837226045885742e-5 0.0
0.0019243389232363405 -0.00016487183051169644 0.0
0.00198450771085228 -0.00023735447931360655 0.0
0.0020339389985195603 -0.0002465042772334522 0.0
0.001980104506452858 -0.00025596736444347357 0.0
0.0019314672262465357 -0.0002450952542058526 0.0
0.0019257791230512416 -0.0002646270194540639 0.0
0.0020296785183754333 -0.00026585698103094585 0.0
0.0020841683558632976 -0.00025570544402460924 0.0
0.002093619261118214 -0.0001695877990533723 0.0
0.002080208320547754 -0.00027562839301157075 0.0
0.002137982761470681 -0.00026355372512854665 0.0
0.002132122074506481 -0.0002853246593595489 0.0
0.0018776484278471052 -0.0002532293030560723 0.0
0.0018739149883887916 -0.0002724062871425426 0.0
0.0021916338838783036 -0.0002721661250950963 0.0
0.0018227157508735983 -0.0002603705250468615 0.0
0.0018221260651862645 -0.0002805150945233058 0.0
0.0021867343046548184 -0.0002942113198402023 0.0
0.0022443258741892498 -0.00028205612586863576 0.0
0.0017674069159409663 -0.0002676465175791947 0.0
0.001765523146145202 -0.0002884172576831366 0.0
0.002240652340677598 -0.0003039846435228118 0.0
0.002299796851855258 -0.00029108472147161405 0.0
0.0017123240714840258 -0.00027491940224991566 0.0
0.0017099326905189109 -0.00029695946544241027 0.0
0.002295963543789869 -0.000314173159624843 0.0
0.0023566182861690724 -0.00029997791352063765 0.0
0.0016576452537101836 -0.0002810516510821098 0.0
0.001651597597038445 -0.00030379539886623734 0.0
0.0023535169888195457 -0.0003236822961050656 0.0
0.0024144287958321456 -0.0003086639788166479 0.0
0.0015975357341097482 -0.00028719424986858595 0.0
0.0015929094239145057 -0.0003112725974021798 0.0
0.0015357480342104463 -0.00029479624538997917 0.0
0.0015400579961064953 -0.00026929591934696164 0.0
0.0022871850028260295 -0.00033696291337395335 0.0
0.0024110325295568133 -0.00033332467808893924 0.0
0.0024730863447663324 -0.00031719665898494355 0.0
0.002477487539983084 -0.0002919009731587776 0.0
0.002106474440732554 -9.302997686398608e-5 0.0
0.002538430655532469 -0.000299967608280988 0.0
0.002543347785631413 -0.0002737368262034337 0.0
0.002606157278879392 -0.000280961248456538 0.0
0.0015358966653134538 -0.0003208456873594717 0.0
0.001476199824258694 -0.0003015822099914873 0.0
0.0015919657271225636 -0.0003371667981721302 0.0
0.0024678950957081887 -0.00034317470586246675 0.0
0.0014770489394236132 -0.0003283475908053237 0.0
0.0014166851341023694 -0.0003076077175438385 0.0
0.0021307190020093156 -2.955817754357378e-5 0.0
0.0014172959858954797 -0.000333851022912483 0.0
0.001357059990999018 -0.0003127694005114085 0.0
0.0013578328155824319 -0.00033968689155094804 0.0
0.001298422503379687 -0.00031664114505393365 0.0
0.001296337346993458 -0.00029039340217967114 0.0
0.001234256639428538 -0.0002950013673562833 0.0
0.0012330625627403427 -0.000267276893791374 0.0
0.0012921103361277708 -0.00034329752969549044 0.0
0.0011664613656217249 -0.00027220828700775997 0.0
0.0011647582093553032 -0.00024381746622952576 0.0
0.0013590559290995359 -0.0003681890302395233 0.0
0.0013031430997963204 -0.0003740142660358514 0.0
0.001099758803862782 -0.0002465334518000528 0.0
0.0010958589054739668 -0.00021889745353145172 0.0
0.0026128637437693087 -0.0002544228085628673 0.0
0.002678109037657875 -0.00026128442311003494 0.0
0.0013601007741527696 -0.00039707484907509796 0.0
0.0013048467185770322 -0.000402736123985999 0.0
0.0026855753604589005 -0.00023394463546419093 0.0
0.0027538810419063817 -0.00024102530016976433 0.0
0.0027435871741907794 -0.0002709980178008321 0.0
0.0028197515261871135 -0.00024908848331225503 0.0
0.002810702661728142 -0.0002797850564252579 0.0
0.0028868483955855366 -0.0002554924172015791 0.0
0.0028816199162418326 -0.00028594914170310023 0.0
0.002960188989557867 -0.00025850353798577663 0.0
0.0029483719363995703 -0.0002896056328075407 0.0
0.002965430967160886 -0.00022931965370218382 0.0
0.0030280752937950207 -0.00026262761700512313 0.0
0.0030121404612734924 -0.0002935828060819908 0.0
0.0013617370803013123 -0.00042651703101392934 0.0
0.001027449488895322 -0.00022092786558667742 0.0
0.001022267601500758 -0.00019291005275535918 0.0
0.0029390615940692593 -0.00032148767669552104 0.0
0.003000403441996678 -0.00032496175762721153 0.0
0.003072277619530951 -0.00029662067311610977 0.0
0.0029325182502772393 -0.0003540502461588659 0.0
0.0013077440256006364 -0.00043237100309525704 0.0
0.0030607343574971667 -0.00032750020495126255 0.0
0.003130955047474062 -0.000298400816289965 0.0
0.0013631918610426742 -0.0004568036269044603 0.0