# vtk DataFile Version 2.0
phase field modeling fracture
ASCII
DATASET UNSTRUCTURED_GRID
POINTS 2538 float
0.0 0.0 0.0
10.0 0.0 0.0
0.0 10.0 0.0
10.0 10.0 0.0
0.0 4.9995 0.0
0.0 5.0005 0.0
5.0 5.0 0.0
0.9416964895726688 0.0 0.0
1.803581725054446 0.0 0.0
2.592419885431098 0.0 0.0
3.314401822861676 0.0 0.0
3.975193910351406 0.0 0.0
4.579982132660152 0.0 0.0
5.133512780936812 0.0 0.0
5.640130319506143 0.0 0.0
6.103810708661955 0.0 0.0
6.528192895506818 0.0 0.0
6.916607540127679 0.0 0.0
7.272102969376355 0.0 0.0
7.597469242948583 0.0 0.0
7.895259826292669 0.0 0.0
8.167811885738017 0.0 0.0
8.417264413845215 0.0 0.0
8.645575169389538 0.0 0.0
8.854535961159101 0.0 0.0
9.045786767735546 0.0 0.0
9.220828555767493 0.0 0.0
9.38103509633881 0.0 0.0
9.527663687265145 0.0 0.0
9.661865124984566 0.0 0.0
9.784692609918062 0.0 0.0
9.897110148790482 0.0 0.0
10.0 0.09999999999992584 0.0
10.0 0.199999999999856 0.0
10.0 0.2999999999997771 0.0
10.0 0.3999999999996677 0.0
10.0 0.4999999999995511 0.0
10.0 0.5999999999994683 0.0
10.0 0.6999999999993983 0.0
10.0 0.7999999999993286 0.0
10.0 0.8999999999992587 0.0
10.0 0.9999999999991888 0.0
10.0 1.099999999999119 0.0
10.0 1.199999999999033 0.0
10.0 1.299999999998852 0.0
10.0 1.399999999998576 0.0
10.0 1.499999999998284 0.0
10.0 1.599999999997992 0.0
10.0 1.6999999999977 0.0
10.0 1.799999999997408 0.0
10.0 1.899999999997116 0.0
10.0 1.999999999996825 0.0
10.0 2.099999999996533 0.0
10.0 2.199999999996241 0.0
10.0 2.299999999995949 0.0
10.0 2.399999999995657 0.0
10.0 2.499999999995365 0.0
10.0 2.599999999995073 0.0
10.0 2.699999999994782 0.0
10.0 2.79999999999449 0.0
10.0 2.899999999994198 0.0
10.0 2.999999999993906 0.0
10.0 3.099999999993614 0.0
10.0 3.199999999993322 0.0
10.0 3.299999999993029 0.0
10.0 3.399999999992738 0.0
10.0 3.499999999992446 0.0
10.0 3.599999999992154 0.0
10.0 3.699999999991863 0.0
10.0 3.799999999991571 0.0
10.0 3.899999999991278 0.0
10.0 3.999999999991022 0.0
10.0 4.099999999991035 0.0
10.0 4.199999999991187 0.0
10.0 4.299999999991338 0.0
10.0 4.399999999991491 0.0
10.0 4.499999999991642 0.0
10.0 4.599999999991795 0.0
10.0 4.699999999991947 0.0
10.0 4.799999999992099 0.0
10.0 4.89999999999225 0.0
10.0 4.999999999992403 0.0
10.0 5.099999999992555 0.0
10.0 5.199999999992706 0.0
10.0 5.299999999992858 0.0
10.0 5.39999999999301 0.0
10.0 5.499999999993161 0.0
10.0 5.599999999993313 0.0
10.0 5.699999999993466 0.0
10.0 5.799999999993618 0.0
10.0 5.899999999993771 0.0
10.0 5.999999999993922 0.0
10.0 6.099999999994074 0.0
10.0 6.199999999994227 0.0
10.0 6.299999999994378 0.0
10.0 6.39999999999453 0.0
10.0 6.499999999994682 0.0
10.0 6.599999999994833 0.0
10.0 6.699999999994986 0.0
10.0 6.799999999995138 0.0
10.0 6.899999999995289 0.0
10.0 6.999999999995442 0.0
10.0 7.099999999995594 0.0
10.0 7.199999999995747 0.0
10.0 7.299999999995897 0.0
10.0 7.39999999999605 0.0
10.0 7.499999999996202 0.0
10.0 7.599999999996353 0.0
10.0 7.699999999996505 0.0
10.0 7.799999999996658 0.0
10.0 7.899999999996808 0.0
10.0 7.999999999996962 0.0
10.0 8.099999999997113 0.0
10.0 8.199999999997265 0.0
10.0 8.299999999997418 0.0
10.0 8.399999999997569 0.0
10.0 8.499999999997721 0.0
10.0 8.599999999997873 0.0
10.0 8.699999999998024 0.0
10.0 8.799999999998176 0.0
10.0 8.899999999998329 0.0
10.0 8.99999999999848 0.0
10.0 9.099999999998634 0.0
10.0 9.199999999998786 0.0
10.0 9.299999999998937 0.0
10.0 9.399999999999089 0.0
10.0 9.499999999999241 0.0
10.0 9.599999999999392 0.0
10.0 9.699999999999545 0.0
10.0 9.799999999999697 0.0
10.0 9.899999999999848 0.0
9.897110148790565 10.0 0.0
9.784692609918244 10.0 0.0
9.66186512498486 10.0 0.0
9.527663687265571 10.0 0.0
9.381035096339392 10.0 0.0
9.220828555768257 10.0 0.0
9.045786767736512 10.0 0.0
8.854535961160305 10.0 0.0
8.645575169391027 10.0 0.0
8.417264413847017 10.0 0.0
8.167811885740178 10.0 0.0
7.895259826295246 10.0 0.0
7.597469242951631 10.0 0.0
7.272102969379938 10.0 0.0
6.916607540131873 10.0 0.0
6.528192895511704 10.0 0.0
6.103810708667616 10.0 0.0
5.640130319512691 10.0 0.0
5.13351278094435 10.0 0.0
4.579982132668816 10.0 0.0
3.975193910361222 10.0 0.0
3.314401822869852 10.0 0.0
2.592419885437257 10.0 0.0
1.803581725058137 10.0 0.0
0.9416964895740705 10.0 0.0
0.0 9.00010000000243 0.0
0.0 8.000200000005481 0.0
0.0 7.000300000005135 0.0
0.0 6.000400000002569 0.0
0.901790731451151 5.000409820926855 0.0
1.657200899774397 5.000334279910023 0.0
2.289991063707192 5.000271000893629 0.0
2.820065163538221 5.000217993483646 0.0
3.264096435579811 5.000173590356442 0.0
3.636051481595835 5.00013639485184 0.0
3.947629914072366 5.000105237008593 0.0
4.208632181002628 5.0000791367819 0.0
4.427267949625672 5.000057273205037 0.0
4.610414277633563 5.000038958572237 0.0
4.763831845154243 5.000023616815485 0.0
4.892346298799659 5.00001076537012 0.0
4.892346298799748 4.99998923462988 0.0
4.763831845154455 4.999976383184515 0.0
4.610414277633943 4.999961041427763 0.0
4.427267949626277 4.999942726794963 0.0
4.208632181003523 4.9999208632181 0.0
3.94762991407365 4.999894762991407 0.0
3.636051481597624 4.99986360514816 0.0
3.264096435582253 4.999826409643559 0.0
2.820065163541503 4.999782006516354 0.0
2.289991063711534 4.999728999106371 0.0
1.657200899778495 4.999665720089978 0.0
0.9017907314530094 4.999590179073145 0.0
0.0 3.999600000002013 0.0
0.0 2.999700000005187 0.0
0.0 1.99980000000512 0.0
0.0 0.9999000000025537 0.0
9.897889398521345 2.93573355845387 0.0
9.906568249974548 7.060009441434234 0.0
9.913122631074113 3.64016132281653 0.0
9.922462129543863 6.354535290629151 0.0
9.917693659967533 4.354211663134567 0.0
9.909873057440208 5.637584487339942 0.0
9.914183254994697 4.950672966925282 0.0
9.913885043715895 7.666887930262611 0.0
9.91009668007573 2.351889069770817 0.0
9.905135696074536 8.138152454502785 0.0
9.913397459621809 1.849999999997262 0.0
7.099302372137626 0.297750452375005 0.0
7.095143729410097 9.700359990366296 0.0
4.942912558701401 5.095838627899509 0.0
4.315009232304429 5.165022115481685 0.0
4.946182472483878 4.906763777264103 0.0
4.317967462990024 4.825955043772673 0.0
9.916390871492647 8.64999999999792 0.0
9.921504649680616 1.368376469890358 0.0
8.292538149791614 0.206877570318844 0.0
8.292538149793597 9.793122429681448 0.0
5.884594439766573 9.587645267048616 0.0
5.794826292691579 0.3794853783929359 0.0
9.913397459621425 9.049999999998557 0.0
9.908526577714177 0.9568239351922434 0.0
3.456851160380649 5.315740054130451 0.0
3.457889657868442 4.707121019609468 0.0
8.945214200703926 0.1503383337970344 0.0
8.950161364448409 9.8413906539257 0.0
9.913862335499305 4.055887885208452 0.0
9.916697353372683 4.650158482607802 0.0
9.919076340414442 6.049999999994006 0.0
9.906994308667635 5.25749687748192 0.0
9.917490342358025 6.655979201891897 0.0
9.915757520293784 7.343848891656911 0.0
9.910049507471042 3.363474386285078 0.0
9.914471988502868 2.647400064832979 0.0
9.91474124160965 9.337490423485129 0.0
9.916971008170838 0.6499999999994355 0.0
4.307157269264427 9.509674045029644 0.0
4.331527375865619 0.4401616696422582 0.0
9.45434939180249 9.878397030523757 0.0
9.457696120412969 0.1270877537061785 0.0
2.555070293622606 5.422044496190925 0.0
2.566232917480916 4.608001224030952 0.0
3.026511860837692 9.332320638257093 0.0
2.945561971800619 0.5895662714727601 0.0
7.7395404387124 0.2511088946967771 0.0
7.736379255744154 9.745848826372828 0.0
4.687135269408529 5.122111433928926 0.0
4.688420821504113 4.871895064967488 0.0
9.910554884115975 0.3448356354522978 0.0
9.911230082250466 9.65764729394159 0.0
9.921953841410854 6.851023993342036 0.0
9.912065178606017 5.448170483544033 0.0
9.911660025326261 3.861846960030188 0.0
9.914847467973438 3.14501593945607 0.0
9.913397459621425 5.849999999993703 0.0
9.913397459621425 7.849999999996735 0.0
9.906916878988277 2.15455769998631 0.0
9.913397459621425 8.349999999997479 0.0
9.909472363117661 1.640528221515488 0.0
9.913987325695956 1.152857110636247 0.0
9.913397459621425 8.849999999998241 0.0
0.9100099990995943 2.614215977520411 0.0
0.8395284981715456 7.451196254860987 0.0
9.723278867451556 9.898135916635193 0.0
9.723316350887044 0.09841820909386662 0.0
1.385819164827588 4.454539963646463 0.0
1.338343629665047 5.523111536005823 0.0
1.377179700550677 0.6809168304959698 0.0
1.418060461092743 9.285896715136046 0.0
9.91268220142518 0.1457914080939694 0.0
9.906737126737994 9.845745933882352 0.0
0.7108351382691361 6.537941170074089 0.0
1.527735020267026 6.915620208855231 0.0
1.630993885659103 7.838271825205868 0.0
2.232760943566823 7.370850737296832 0.0
2.243414218068206 6.688299277952821 0.0
2.779655053105118 7.021588754814074 0.0
2.80227799359795 7.632420170547022 0.0
3.282022065908813 7.305859666021318 0.0
3.327597298795347 7.857554136825748 0.0
3.743210251018715 7.549183328204379 0.0
3.716353232200752 7.062036086888612 0.0
4.111978858674101 7.27497101169417 0.0
4.104192177581432 6.879858986267289 0.0
4.436230765617037 7.045693351607117 0.0
4.430360014817357 6.703971783962796 0.0
4.732390145036301 6.849841042423394 0.0
5.056161327708878 5.095276573498806 0.0
5.111586796021131 4.999081142133581 0.0
5.169267363407189 5.09444870412406 0.0
5.223795108752053 4.996986220359468 0.0
5.281480803887719 5.092780870372803 0.0
5.335670761900611 4.994887492556936 0.0
5.393485214772442 5.090486192743301 0.0
5.447323082877892 4.992601527033996 0.0
5.505243219343024 5.087953380710069 0.0
5.558739102026105 4.990287787962959 0.0
5.616491581184779 5.085335255235766 0.0
5.669852346908056 4.9879269227514 0.0
5.727502713908907 5.082679981817038 0.0
5.780766004135139 4.988313988715834 0.0
5.838244881129535 5.080480568766611 0.0
5.891357695677371 4.986433849408193 0.0
5.948696036767613 5.077969900389505 0.0
6.001601341641615 4.981313698556656 0.0
6.058851024265095 5.074871552128682 0.0
6.111614020704875 4.978360695880202 0.0
6.168801161530775 5.072044953270978 0.0
6.221368818778567 4.975825765213497 0.0
6.278268309066882 5.066182320461055 0.0
6.330814273567539 4.972837984645718 0.0
6.387565032421376 5.062889771971895 0.0
6.437476667631405 4.971693683589553 0.0
[...]
POINT_DATA 2538
VECTORS disp float
1.52271202339144e-11 3.555040247156817e-11 0.0
2.853353998562771e-11 -7.624506322903572e-11 0.0
0.003299999991840781 2.078576679202535e-11 0.0
0.003299999968102525 -8.668933472759005e-11 0.0
0.0011370935650816614 0.0004598396602159345 0.0
0.002387991408249308 0.0001965588928992434 0.0
0.0016296677779658875 8.045756493433e-5 0.0
2.9870584787047476e-12 6.34744515657139e-13 0.0
6.357545307561185e-12 6.688619189600641e-12 0.0
5.4244103743697874e-12 3.3825888896762163e-12 0.0
5.033873296015949e-12 3.1034916227424034e-12 0.0
4.3767250307374564e-12 2.1046004106532696e-12 0.0
3.944592019856206e-12 1.2783475019487724e-12 0.0
3.5253844780332885e-12 5.425602143730757e-13 0.0
3.2139883641441273e-12 -2.8568800800643445e-13 0.0
2.6942954291217987e-12 -1.2007273211278473e-12 0.0
2.924706519931137e-12 -2.101680823523202e-12 0.0
2.8400687902386506e-12 -3.1822095176722204e-12 0.0
2.947398961577033e-12 -4.355133043355715e-12 0.0
3.152325259149692e-12 -5.53761295985043e-12 0.0
3.2016295093978216e-12 -6.593151673309765e-12 0.0
3.5245162717409042e-12 -7.879759867844484e-12 0.0
3.5869975857926174e-12 -8.872307061463222e-12 0.0
3.856183947787016e-12 -1.0111054170384957e-11 0.0
4.041672059887229e-12 -1.1444599200484276e-11 0.0
4.251908408905927e-12 -1.2711637865899546e-11 0.0
4.543660535269459e-12 -1.4260631892192358e-11 0.0
4.923980827472671e-12 -1.601679561195403e-11 0.0
5.5355876797850526e-12 -1.8247844525012912e-11 0.0
5.657211956672076e-12 -2.062574272770222e-11 0.0
7.988094735297202e-12 -2.6699508442935132e-11 0.0
3.7739493353945775e-12 -2.3606300075528453e-11 0.0
4.267699873125441e-5 -5.16950668935629e-5 0.0
7.431384259666698e-5 -8.829564590542025e-5 0.0
0.00010487615123320591 -0.00012002356739845481 0.0
0.00013394955514021086 -0.00014871743020368169 0.0
0.0001619565646926424 -0.00017533714330327232 0.0
0.00018945783409258273 -0.00020063912635154006 0.0
0.0002169174013330117 -0.00022468842939625443 0.0
0.00024407842452742504 -0.00024771022030552984 0.0
0.00027119522725447447 -0.0002699327810470959 0.0
0.0002983498188327388 -0.00029134009620473115 0.0
0.00032555146848616136 -0.0003121358433162847 0.0
0.0003530321577701516 -0.0003323054008903178 0.0
0.0003805875317388999 -0.0003518518827808839 0.0
0.00040834862207020703 -0.000370937734247753 0.0
0.0004364929662793188 -0.0003894948502006714 0.0
0.00046472157391244266 -0.00040751677613967257 0.0
0.0004932420014560062 -0.0004251192823729847 0.0
0.0005220540011741243 -0.0004421961838033515 0.0
0.0005511280850638981 -0.000458856991299148 0.0
0.0005804837066628291 -0.0004750921181624185 0.0
0.0006101575245478745 -0.0004908997980960734 0.0
0.0006400849759900727 -0.0005062729834421704 0.0
0.0006704546012494363 -0.0005212732489625421 0.0
0.0007009583101770785 -0.0005358246783976303 0.0
0.0007319570125691067 -0.0005499905777362306 0.0
0.0007630632988216114 -0.0005637030534944653 0.0
0.0007945474167676546 -0.0005770415656381699 0.0
0.0008262645853807288 -0.0005899163711082436 0.0
0.0008584149110765098 -0.0006024281674185147 0.0
0.0008906521824674636 -0.0006145181102031529 0.0
0.0009233330098021818 -0.0006262281741227008 0.0
0.0009562339944223882 -0.0006374782761982515 0.0
0.000989450765562412 -0.0006483489263489011 0.0
0.0010228500292666625 -0.0006587795027821837 0.0
0.0010566431298917398 -0.0006688232075570884 0.0
0.0010905074148263628 -0.0006783919972860587 0.0
0.0011246909273411843 -0.0006875428495126435 0.0
0.0011590152039563763 -0.0006961676721361988 0.0
0.0011935659409354172 -0.0007042884434926816 0.0
0.0012283063100476173 -0.0007120254269410525 0.0
0.0012631829575984687 -0.0007192004512380759 0.0
0.0012983376402406802 -0.0007259770191696858 0.0
0.0013336875100419588 -0.0007322337772233198 0.0
0.0013691529591435773 -0.0007380950208095869 0.0
0.001404828177934211 -0.0007433864450124674 0.0
0.0014404885769170744 -0.00074825750599791 0.0
0.0014763693398085684 -0.0007526717993294451 0.0
0.0015122743823797458 -0.0007565706814430406 0.0
0.0015482665133403574 -0.000760073297302563 0.0
0.0015844172354037656 -0.0007630559417789498 0.0
0.0016203031516152193 -0.000765450376127523 0.0
0.0016565335975221764 -0.0007674641470288108 0.0
0.0016921889274224837 -0.0007688791619495544 0.0
0.0017282958863468647 -0.0007698448237993164 0.0
0.0017634007522754267 -0.0007702112233684413 0.0
0.00179906293017525 -0.0007701564381649624 0.0
0.001833390505194662 -0.0007693939148289501 0.0
0.0018673937987035531 -0.0007675655389620923 0.0
0.0019014455470016624 -0.0007653329955435352 0.0
0.0019354385550555578 -0.0007621473808162129 0.0
0.001968862489778982 -0.0007587198776768436 0.0
0.0020020712379000523 -0.0007543862837665554 0.0
0.002035540917786356 -0.0007494980052547164 0.0
0.0020683590581518966 -0.000743088311559372 0.0
0.0021018000369825668 -0.0007358655880180324 0.0
0.0021357481505171086 -0.0007278125255384653 0.0
0.0021689486669662786 -0.0007187194014999579 0.0
0.0022024705892841807 -0.0007089080518562003 0.0
0.002236416261751217 -0.000698206521180783 0.0
0.0022705452631924077 -0.0006867957782595049 0.0
0.0023044333142545506 -0.0006747271528227256 0.0
0.0023387020832041174 -0.0006618204268784418 0.0
0.0023726596505776842 -0.0006482906529146833 0.0
0.00240662817425761 -0.0006343329373612139 0.0
0.0024408201643237853 -0.0006196523034791913 0.0
0.0024747085449868095 -0.0006045134055893166 0.0
0.0025086178859990886 -0.0005888244141426832 0.0
0.00254236537851929 -0.0005726403947186897 0.0
0.002576186510469142 -0.0005559385713277458 0.0
0.002609901626941892 -0.0005386686229393106 0.0
0.0026434772855748155 -0.00052087452382872 0.0
0.0026767351953845787 -0.0005025825359632269 0.0
0.0027099301129573424 -0.00048378279544352543 0.0
0.002743076189706748 -0.0004643814969215985 0.0
0.002775981981984404 -0.00044443476707543714 0.0
0.0028088341099736023 -0.0004239764284586666 0.0
0.002841771151904468 -0.0004028093739219557 0.0
0.0028745192240866935 -0.0003809700695965964 0.0
0.0029071340862847975 -0.0003585091689689598 0.0
0.002939927410831794 -0.00033526590480294655 0.0
0.0029728979549840592 -0.00031109929559367016 0.0
0.003005848303031356 -0.0002859705380577453 0.0
0.0030388634493980432 -0.0002598560887469406 0.0
0.0030722089682655683 -0.00023248179946012374 0.0
0.0031063087050281135 -0.0002035039613846749 0.0
0.0031407283317168113 -0.000172709390636614 0.0
0.003175854497878925 -0.00013937411618326047 0.0
0.0032131893185006694 -0.00010220387899908651 0.0
0.003251602223582827 -5.93322305257811e-5 0.0
0.0032999999955396877 -2.3354300968439337e-11 0.0
0.003299999990739664 -2.5987554277734178e-11 0.0
0.0032999999939339586 -1.6374935117955994e-11 0.0
0.00329999999394667 -1.4253320792580051e-11 0.0
0.003299999994454724 -1.1685263021670414e-11 0.0
0.0032999999947032612 -9.898598923387483e-12 0.0
0.0032999999948066937 -8.592123159434902e-12 0.0
0.0032999999950057302 -7.438014824149202e-12 0.0
0.003299999995074513 -6.393624194806075e-12 0.0
0.0032999999952385323 -5.4101000810490104e-12 0.0
0.0032999999954336826 -4.6255445924573434e-12 0.0
0.003299999995538785 -3.624160650079872e-12 0.0
0.0032999999956642738 -2.8761432783712333e-12 0.0
0.0032999999957995813 -1.9829621832184634e-12 0.0
0.0032999999958787498 -1.1209270637092897e-12 0.0
0.0032999999959128254 -1.6791942136229325e-13 0.0
0.0032999999959740386 8.007612412785364e-13 0.0
0.003299999995616564 1.9395752714786548e-12 0.0
0.003299999995946117 2.873015521955552e-12 0.0
0.003299999995317156 4.099381109814245e-12 0.0
0.0032999999953485103 4.9210492574465585e-12 0.0
0.0032999999951478075 5.798942884268746e-12 0.0
0.0032999999953220497 6.020760733652131e-12 0.0
0.0032999999954245723 7.793922359548675e-12 0.0
0.003299999997620698 3.4686413208196675e-12 0.0
0.0030518564534068346 0.00014099036336419785 0.0
0.00284281998759564 0.00020438815357891828 0.0
0.002656371577324878 0.00021816639740304423 0.0
0.002495027874623787 0.0002084914363632993 0.0
0.0023869628508237247 9.70671200022486e-5 0.0
0.0023756982725732507 4.242047332792164e-5 0.0
0.0023381387600952606 1.6247461703184655e-5 0.0
0.002289063430792595 1.5203660194049956e-5 0.0
0.0022313061341095153 2.630949428396647e-5 0.0
0.002170678814208357 3.889636883341169e-5 0.0
0.002108231690658449 5.065627146795132e-5 0.0
0.00204485344898633 6.24736151452753e-5 0.0
0.0019792587091687157 7.205071379767214e-5 0.0
0.0019108803835909997 7.89624587638151e-5 0.0
0.0018361984421540463 8.316818090299364e-5 0.0
0.001748080206618999 8.538280059340458e-5 0.0
0.0015259673398674888 0.00011887610716246669 0.0
0.0014526793622013025 0.00013354238652795372 0.0
0.0013922545757758308 0.0001416403432756542 0.0
0.0013396762959656072 0.00014793933763516105 0.0
0.0012920952447340655 0.00015382811801394161 0.0
0.0012491759651887578 0.00016019136152475868 0.0
0.001210667170302783 0.00016821718570054453 0.0
0.0011779822841601732 0.00017911026673501454 0.0
0.001152670049559869 0.0001971790373072548 0.0
0.0011353147744758844 0.00022424113297943733 0.0
0.0011331556088169437 0.0002746655865074343 0.0
0.0011329679622010477 0.00034639288740572746 0.0
0.001014245331920992 0.00047349215908854697 0.0
0.0008387352410173829 0.00045482558532056655 0.0
0.0005906903551355727 0.0003729109120698111 0.0
0.00031475942759220336 0.00024209368733096732 0.0
0.0008640239824185458 -0.00057740292725962 0.0
0.0022978701497275993 -0.0006398863028882178 0.0
0.001100065417969159 -0.0006557184179892616 0.0
0.0020569355606478434 -0.0007136087181441442 0.0
0.0013501198728862183 -0.0007096680252733231 0.0
0.0018126870859170327 -0.0007390976074825878 0.0
0.0015650729638850653 -0.0007340283187245574 0.0
0.0025050470385306416 -0.0005593255924552482 0.0
0.000680448107749496 -0.0005041550479595988 0.0
0.002665274296738395 -0.0004774949953798993 0.0
0.0005305093192057739 -0.00042784174611870825 0.0
5.401852034023402e-5 -9.660457392656157e-6 0.0
0.003241925972762576 -7.563479734409621e-6 0.0
0.001761162353297031 0.00010378501265885602 0.0
0.0020149166275663004 8.651925351607585e-5 0.0
0.0014983730163745728 0.00011997012868949108 0.0
0.001296437094389194 0.00016366393492850916 0.0
0.00283390694259621 -0.00038270658786955514 0.0
0.00039357118958906185 -0.0003451451847613116 0.0
3.908191570377112e-5 -1.688599236998331e-5 0.0
0.0032583553735324048 -1.2758768484262868e-5 0.0
0.003218370339108077 2.8239190648754597e-6 0.0
7.162003870468977e-5 2.3891042739718033e-6 0.0
0.0029658972137192067 -0.00029240552125769714 0.0
0.0002791740306259745 -0.0002598222675283723 0.0
0.002194811726277114 5.973490859307225e-5 0.0
0.001164361284875924 0.00018500505296264015 0.0
2.997849818524073e-5 -1.783447386214136e-5 0.0
0.0032668291171852716 -1.4623658232134275e-5 0.0
0.0012444615044384006 -0.000689419087592797 0.0
0.0014562956771808318 -0.0007241493958396771 0.0
0.0019544313763019865 -0.0007290830828394735 0.0
0.001676391203002908 -0.0007378968824985673 0.0
0.0021591991492482844 -0.0006874673782017436 0.0
0.0023944346814957114 -0.0006072390081509696 0.0
0.0010059661924903566 -0.0006282186327877468 0.0
0.0007727109166222235 -0.0005459641798985407 0.0
0.0030612426695375014 -0.00021997619996371213 0.0
0.00019592692033083546 -0.00019246436231459848 0.0
0.0031958732092824365 1.9461883820978086e-5 0.0
9.224183983563708e-5 1.4273341039604396e-5 0.0
0.0032725193968576134 -1.7353658808612713e-5 0.0
2.8229294521248908e-5 -2.153893488463011e-5 0.0
0.0023110229215200047 4.103724577265159e-5 0.0
0.001097034435424996 0.0002161357174840882 0.0
0.0031528363704841464 3.568969500715795e-5 0.0
0.00013292369216088906 2.8791552182483612e-5 0.0
4.634499533024488e-5 -1.446013477302849e-5 0.0
0.0032498899543196543 -1.1101745864135676e-5 0.0
0.0018879480427921999 9.992091972026634e-5 0.0
0.001395980949581272 0.0001508756203799563 0.0
0.00010924916761547422 -0.00011104965328352881 0.0
0.0031725364801290248 -0.00012402165613850536 0.0
0.002225077663668673 -0.0006699667545338323 0.0
0.0017452161653094896 -0.0007407608868280386 0.0
0.0011766286050701794 -0.0006741227318761199 0.0
0.0009334732473022683 -0.0006063638308989402 0.0
0.0018862796279039667 -0.0007351366725646757 0.0
0.002567181594357095 -0.0005299933714521778 0.0
0.0006202623626367446 -0.0004742278961575693 0.0
0.0027350585666429525 -0.0004414522174057261 0.0
0.0004696462670673576 -0.00039139631952464206 0.0
0.0003332827023983012 -0.0003015434980771188 0.0
0.0028999685402786384 -0.0003385710356236479 0.0
0.0006964684882088988 0.000241802281677397 0.0
0.0027305907040825893 0.00013696509211481785 0.0
0.003272881583580614 -2.212569648970785e-5 0.0
2.4611177738788465e-5 -2.2142794932225547e-5 0.0
0.001069465785218853 0.0002972477300304819 0.0
0.00240867768817174 7.50622698073408e-5 0.0
0.0001561023496961589 4.577854255358156e-5 0.0
0.003148717756526778 4.225428762852322e-5 0.0
4.796682543237634e-5 -4.964718376029697e-5 0.0
0.0032436042593675255 -5.606221013595648e-5 0.0
0.0025647191003607306 0.00013757535770182516 0.0
0.0026065340591272792 0.00011892720672166142 0.0
0.002811655144928731 0.00010494149641841353 0.0
0.0026902070041106927 0.00011267005571329039 0.0
0.002530234925013823 0.00011071772111935216 0.0
0.002585482111892046 0.00011997874918129278 0.0
0.0027401744517210024 0.00011015364690371961 0.0
0.0026430623232852834 0.00012004937209744661 0.0
0.002789696833897032 0.00010281631479652862 0.0
0.0027009934615137665 0.00011068899500814087 0.0
0.0025637231706307118 0.00012546588243851392 0.0
0.0026176368729078064 0.00011388233279117551 0.0
0.002500011957808939 0.00012599647409174014 0.0
0.002544228370732969 0.00011220393042550046 0.0
0.002437858859267184 0.00012290069151464525 0.0
0.0024780052119304586 0.00010569538447395099 0.0
0.0017204228915582904 6.684208712409262e-5 0.0
0.001623054273214087 5.108847558726147e-5 0.0
0.0016969504098623244 4.350984171252084e-5 0.0
0.001617949433221418 3.213779616762489e-5 0.0
0.0016828642473597057 2.5726907363827673e-5 0.0
0.0016147766959602786 1.6979986069080438e-5 0.0
0.0016735738805750148 1.0881214516341246e-5 0.0
0.001611814861349205 3.1947368911454125e-6 0.0
0.0016666741287463716 -2.527045548758414e-6 0.0
0.0016092338446434251 -9.60870128314867e-6 0.0
0.0016613227396942935 -1.4959617724149471e-5 0.0
0.0016070455300505706 -2.169297621810254e-5 0.0
0.0016570411549036979 -2.7143924937403077e-5 0.0
0.0016065218550180972 -3.3512535412006946e-5 0.0
0.0016535636835841873 -3.8942291897323553e-5 0.0
0.0016047999351094036 -4.5181226375048955e-5 0.0
0.0016503532645494132 -5.0525493468556736e-5 0.0
0.0016016062782541112 -5.671473031576466e-5 0.0
0.0016471904883824469 -6.206114489771475e-5 0.0
0.001599621292860374 -6.814929733231383e-5 0.0
0.0016444404724012904 -7.360939306982073e-5 0.0
0.0015978662086766743 -7.962698584576569e-5 0.0
0.0016404169356021782 -8.513944495916574e-5 0.0
0.0015958608113336215 -9.121027188234643e-5 0.0
0.0016377127076263318 -9.67889461972878e-5 0.0
0.0015947137328057436 -0.00010261739077408221 0.0
0.0016352849026399113 -0.00010855275834254496 0.0
0.0015907751733165733 -0.00011371719744245321 0.0
0.001632393627599728 -0.00012043037618681004 0.0
0.0015785403352053446 -0.00012585907480545608 0.0
0.0016323557208021988 -0.00013270629434805446 0.0
0.0015867630134866041 -0.0001388471717433842 0.0
0.0016296579376333092 -0.00014508364206576777 0.0
0.001586439352930768 -0.00015151810442777283 0.0
0.0016276571000594382 -0.00015782069824906946 0.0
0.0015873163611540117 -0.0001643232475084095 0.0
0.001625477411532008 -0.0001707825155349931 0.0
0.0015861435949727054 -0.00017761797211541462 0.0
0.0015577107107409844 -2.420595274855391e-6 0.0
0.0016232592884966696 -0.0001841113659928687 0.0
0.0015539072447609524 -6.205095987582e-5 0.0
0.0015377005226447692 -0.00013587627240259438 0.0
0.0015818007110084916 -0.00019107591365994037 0.0
0.0016207288002003171 -0.00019778106805384902 0.0
0.0015774972362372125 -0.00020537007717378743 0.0
0.00153929055096409 -0.00019733599306102274 0.0
0.001533905780881193 -0.00021230548933431721 0.0
0.0016165560970115398 -0.0002126505238893363 0.0
0.0016603658540119543 -0.00020452507425846675 0.0
0.0016712001795675425 -0.00013817534411379826 0.0
0.00165644936404101 -0.0002198354428999582 0.0
0.0017029890664416192 -0.00021020562863025114 0.0
0.001697521543436245 -0.00022695831817994404 0.0
0.0014961316633677548 -0.00020386367767898393 0.0
0.001492314556248575 -0.00021850367605808738 0.0
0.0017455319502311722 -0.00021647833055804807 0.0
0.0014521320740533915 -0.00020958318314209023 0.0
0.0014507837073945546 -0.00022489490383947628 0.0
0.0017408503878027456 -0.00023344343050297678 0.0
0.0017873467635344704 -0.00022373795608949553 0.0
0.0014078314469933011 -0.00021534433350667902 0.0
0.0014054518233238725 -0.00023107358713975225 0.0
0.0017836667985133238 -0.00024060429113066282 0.0
0.0018314941821274465 -0.00023030538148001613 0.0
0.0013637275750565754 -0.00022102366162160363 0.0
0.001360932147232325 -0.0002376453171888796 0.0
0.0018276506432020694 -0.00024805702640192274 0.0
0.0018768012389002843 -0.0002367378529799564 0.0
0.0013200098323961152 -0.00022576411375425104 0.0
0.0013143334916080045 -0.00024284757248202248 0.0
0.0018735157417069006 -0.0002549460256645706 0.0
0.0019229723701973303 -0.00024297280344582562 0.0
0.0012720035839652746 -0.00023042811563637658 0.0
0.001267487714055085 -0.0002484140516131333 0.0
0.001222656988787158 -0.00023605837726322745 0.0
0.001227036885651596 -0.00021703707535299931 0.0
0.0018198298962750893 -0.0002655714834957899 0.0
0.0019194023329570278 -0.0002619115766024811 0.0
0.0019698830373169212 -0.0002490605558259943 0.0
0.0019742733003564232 -0.00022958394256850106 0.0
0.0016841055846110544 -7.945593564143834e-5 0.0
0.002023125151402499 -0.00023527108399986154 0.0
0.0020279447801642174 -0.0002150260793708669 0.0
0.0020784262667023837 -0.0002200152327669576 0.0
0.0012219655388590242 -0.00025542045562842395 0.0
0.0011751727754406435 -0.0002409500186452364 0.0
0.0012659877036924907 -0.0002677038310081898 0.0
0.0019647961044258174 -0.000269014481500254 0.0
0.0011751162785665443 -0.00026075727189738365 0.0
0.001127787506129006 -0.00024515515436351464 0.0
0.0017050884698427543 -3.15819957631565e-5 0.0
0.0011276641623114755 -0.00026448429213643456 0.0
0.0010803967063437543 -0.0002485912687267719 0.0
0.0010804983191863592 -0.0002683279658104924 0.0
0.0010338810086825594 -0.0002509634122133157 0.0
0.0010327728951659736 -0.00023172957142483404 0.0
0.0009834580776227218 -0.0002345695323369441 0.0
0.0009831199173119432 -0.00021426951298731417 0.0
0.0010284881252323789 -0.0002703519062762401 0.0
0.0009301462999990729 -0.00021724599217271494 0.0
0.0009294411169285166 -0.00019646259420784913 0.0
0.0010810863921857038 -0.00028916915811896517 0.0
0.0010368968964616111 -0.0002928319390663706 0.0
0.0008777096346739091 -0.00019777850330265274 0.0
0.0008752398257857008 -0.00017747741224885132 0.0
0.0020846805694787057 -0.00019947607027283968 0.0
0.0021372496860347957 -0.00020412369861635824 0.0
0.0010816664282873084 -0.00031025108171880695 0.0
0.0010380995538104482 -0.0003137310104052685 0.0
0.002144137680344202 -0.0001829064051188217 0.0
0.002199292754917167 -0.0001876448014933958 0.0
0.002189932537612472 -0.00021092579607626062 0.0
0.0022524472159164022 -0.00019312382030813396 0.0
0.0022439404070849485 -0.00021691591402819282 0.0
0.002306567458405424 -0.0001972367850465911 0.0
0.002301005263093964 -0.0002207490213983573 0.0
0.0023657908344702984 -0.00019855713218773434 0.0
0.002354709149214207 -0.00022262208639743558 0.0
0.0023713192797001708 -0.00017600843626936274 0.0
0.002420403407053805 -0.00020070553166611475 0.0
0.0024058082802760525 -0.00022467702196956102 0.0
0.001082839362739871 -0.00033171908420719933 0.0
0.0008207203776785134 -0.00017819974108628387 0.0
0.0008172012735869193 -0.000157518834292513 0.0
0.0023454581660573956 -0.0002472334643557294 0.0
0.0023943627036662365 -0.0002488542925178417 0.0
0.0024537217863148317 -0.00022588397395677915 0.0
0.002338206044786744 -0.0002722331494069309 0.0
0.001040359046405272 -0.00033529322794148797 0.0
0.0024421539822484656 -0.00024957887658288926 0.0
0.0025002478040440797 -0.00022596161587652835 0.0