# vtk DataFile Version 2.0
phase field modeling fracture
ASCII
DATASET UNSTRUCTURED_GRID
POINTS 2538 float
0.0 0.0 0.0
10.0 0.0 0.0
0.0 10.0 0.0
10.0 10.0 0.0
0.0 4.9995 0.0
0.0 5.0005 0.0
5.0 5.0 0.0
0.9416964895726688 0.0 0.0
1.803581725054446 0.0 0.0
2.592419885431098 0.0 0.0
3.314401822861676 0.0 0.0
3.975193910351406 0.0 0.0
4.579982132660152 0.0 0.0
5.133512780936812 0.0 0.0
5.640130319506143 0.0 0.0
6.103810708661955 0.0 0.0
6.528192895506818 0.0 0.0
6.916607540127679 0.0 0.0
7.272102969376355 0.0 0.0
7.597469242948583 0.0 0.0
7.895259826292669 0.0 0.0
8.167811885738017 0.0 0.0
8.417264413845215 0.0 0.0
8.645575169389538 0.0 0.0
8.854535961159101 0.0 0.0
9.045786767735546 0.0 0.0
9.220828555767493 0.0 0.0
9.38103509633881 0.0 0.0
9.527663687265145 0.0 0.0
9.661865124984566 0.0 0.0
9.784692609918062 0.0 0.0
9.897110148790482 0.0 0.0
10.0 0.09999999999992584 0.0
10.0 0.199999999999856 0.0
10.0 0.2999999999997771 0.0
10.0 0.3999999999996677 0.0
10.0 0.4999999999995511 0.0
10.0 0.5999999999994683 0.0
10.0 0.6999999999993983 0.0
10.0 0.7999999999993286 0.0
10.0 0.8999999999992587 0.0
10.0 0.9999999999991888 0.0
10.0 1.099999999999119 0.0
10.0 1.199999999999033 0.0
10.0 1.299999999998852 0.0
10.0 1.399999999998576 0.0
10.0 1.499999999998284 0.0
10.0 1.599999999997992 0.0
10.0 1.6999999999977 0.0
10.0 1.799999999997408 0.0
10.0 1.899999999997116 0.0
10.0 1.999999999996825 0.0
10.0 2.099999999996533 0.0
10.0 2.199999999996241 0.0
10.0 2.299999999995949 0.0
10.0 2.399999999995657 0.0
10.0 2.499999999995365 0.0
10.0 2.599999999995073 0.0
10.0 2.699999999994782 0.0
10.0 2.79999999999449 0.0
10.0 2.899999999994198 0.0
10.0 2.999999999993906 0.0
10.0 3.099999999993614 0.0
10.0 3.199999999993322 0.0
10.0 3.299999999993029 0.0
10.0 3.399999999992738 0.0
10.0 3.499999999992446 0.0
10.0 3.599999999992154 0.0
10.0 3.699999999991863 0.0
10.0 3.799999999991571 0.0
10.0 3.899999999991278 0.0
10.0 3.999999999991022 0.0
10.0 4.099999999991035 0.0
10.0 4.199999999991187 0.0
10.0 4.299999999991338 0.0
10.0 4.399999999991491 0.0
10.0 4.499999999991642 0.0
10.0 4.599999999991795 0.0
10.0 4.699999999991947 0.0
10.0 4.799999999992099 0.0
10.0 4.89999999999225 0.0
10.0 4.999999999992403 0.0
10.0 5.099999999992555 0.0
10.0 5.199999999992706 0.0
10.0 5.299999999992858 0.0
10.0 5.39999999999301 0.0
10.0 5.499999999993161 0.0
10.0 5.599999999993313 0.0
10.0 5.699999999993466 0.0
10.0 5.799999999993618 0.0
10.0 5.899999999993771 0.0
10.0 5.999999999993922 0.0
10.0 6.099999999994074 0.0
10.0 6.199999999994227 0.0
10.0 6.299999999994378 0.0
10.0 6.39999999999453 0.0
10.0 6.499999999994682 0.0
10.0 6.599999999994833 0.0
10.0 6.699999999994986 0.0
10.0 6.799999999995138 0.0
10.0 6.899999999995289 0.0
10.0 6.999999999995442 0.0
10.0 7.099999999995594 0.0
10.0 7.199999999995747 0.0
10.0 7.299999999995897 0.0
10.0 7.39999999999605 0.0
10.0 7.499999999996202 0.0
10.0 7.599999999996353 0.0
10.0 7.699999999996505 0.0
10.0 7.799999999996658 0.0
10.0 7.899999999996808 0.0
10.0 7.999999999996962 0.0
10.0 8.099999999997113 0.0
10.0 8.199999999997265 0.0
10.0 8.299999999997418 0.0
10.0 8.399999999997569 0.0
10.0 8.499999999997721 0.0
10.0 8.599999999997873 0.0
10.0 8.699999999998024 0.0
10.0 8.799999999998176 0.0
10.0 8.899999999998329 0.0
10.0 8.99999999999848 0.0
10.0 9.099999999998634 0.0
10.0 9.199999999998786 0.0
10.0 9.299999999998937 0.0
10.0 9.399999999999089 0.0
10.0 9.499999999999241 0.0
10.0 9.599999999999392 0.0
10.0 9.699999999999545 0.0
10.0 9.799999999999697 0.0
10.0 9.899999999999848 0.0
9.897110148790565 10.0 0.0
9.784692609918244 10.0 0.0
9.66186512498486 10.0 0.0
9.527663687265571 10.0 0.0
9.381035096339392 10.0 0.0
9.220828555768257 10.0 0.0
9.045786767736512 10.0 0.0
8.854535961160305 10.0 0.0
8.645575169391027 10.0 0.0
8.417264413847017 10.0 0.0
8.167811885740178 10.0 0.0
7.895259826295246 10.0 0.0
7.597469242951631 10.0 0.0
7.272102969379938 10.0 0.0
6.916607540131873 10.0 0.0
6.528192895511704 10.0 0.0
6.103810708667616 10.0 0.0
5.640130319512691 10.0 0.0
5.13351278094435 10.0 0.0
4.579982132668816 10.0 0.0
3.975193910361222 10.0 0.0
3.314401822869852 10.0 0.0
2.592419885437257 10.0 0.0
1.803581725058137 10.0 0.0
0.9416964895740705 10.0 0.0
0.0 9.00010000000243 0.0
0.0 8.000200000005481 0.0
0.0 7.000300000005135 0.0
0.0 6.000400000002569 0.0
0.901790731451151 5.000409820926855 0.0
1.657200899774397 5.000334279910023 0.0
2.289991063707192 5.000271000893629 0.0
2.820065163538221 5.000217993483646 0.0
3.264096435579811 5.000173590356442 0.0
3.636051481595835 5.00013639485184 0.0
3.947629914072366 5.000105237008593 0.0
4.208632181002628 5.0000791367819 0.0
4.427267949625672 5.000057273205037 0.0
4.610414277633563 5.000038958572237 0.0
4.763831845154243 5.000023616815485 0.0
4.892346298799659 5.00001076537012 0.0
4.892346298799748 4.99998923462988 0.0
4.763831845154455 4.999976383184515 0.0
4.610414277633943 4.999961041427763 0.0
4.427267949626277 4.999942726794963 0.0
4.208632181003523 4.9999208632181 0.0
3.94762991407365 4.999894762991407 0.0
3.636051481597624 4.99986360514816 0.0
3.264096435582253 4.999826409643559 0.0
2.820065163541503 4.999782006516354 0.0
2.289991063711534 4.999728999106371 0.0
1.657200899778495 4.999665720089978 0.0
0.9017907314530094 4.999590179073145 0.0
0.0 3.999600000002013 0.0
0.0 2.999700000005187 0.0
0.0 1.99980000000512 0.0
0.0 0.9999000000025537 0.0
9.897889398521345 2.93573355845387 0.0
9.906568249974548 7.060009441434234 0.0
9.913122631074113 3.64016132281653 0.0
9.922462129543863 6.354535290629151 0.0
9.917693659967533 4.354211663134567 0.0
9.909873057440208 5.637584487339942 0.0
9.914183254994697 4.950672966925282 0.0
9.913885043715895 7.666887930262611 0.0
9.91009668007573 2.351889069770817 0.0
9.905135696074536 8.138152454502785 0.0
9.913397459621809 1.849999999997262 0.0
7.099302372137626 0.297750452375005 0.0
7.095143729410097 9.700359990366296 0.0
4.942912558701401 5.095838627899509 0.0
4.315009232304429 5.165022115481685 0.0
4.946182472483878 4.906763777264103 0.0
4.317967462990024 4.825955043772673 0.0
9.916390871492647 8.64999999999792 0.0
9.921504649680616 1.368376469890358 0.0
8.292538149791614 0.206877570318844 0.0
8.292538149793597 9.793122429681448 0.0
5.884594439766573 9.587645267048616 0.0
5.794826292691579 0.3794853783929359 0.0
9.913397459621425 9.049999999998557 0.0
9.908526577714177 0.9568239351922434 0.0
3.456851160380649 5.315740054130451 0.0
3.457889657868442 4.707121019609468 0.0
8.945214200703926 0.1503383337970344 0.0
8.950161364448409 9.8413906539257 0.0
9.913862335499305 4.055887885208452 0.0
9.916697353372683 4.650158482607802 0.0
9.919076340414442 6.049999999994006 0.0
9.906994308667635 5.25749687748192 0.0
9.917490342358025 6.655979201891897 0.0
9.915757520293784 7.343848891656911 0.0
9.910049507471042 3.363474386285078 0.0
9.914471988502868 2.647400064832979 0.0
9.91474124160965 9.337490423485129 0.0
9.916971008170838 0.6499999999994355 0.0
4.307157269264427 9.509674045029644 0.0
4.331527375865619 0.4401616696422582 0.0
9.45434939180249 9.878397030523757 0.0
9.457696120412969 0.1270877537061785 0.0
2.555070293622606 5.422044496190925 0.0
2.566232917480916 4.608001224030952 0.0
3.026511860837692 9.332320638257093 0.0
2.945561971800619 0.5895662714727601 0.0
7.7395404387124 0.2511088946967771 0.0
7.736379255744154 9.745848826372828 0.0
4.687135269408529 5.122111433928926 0.0
4.688420821504113 4.871895064967488 0.0
9.910554884115975 0.3448356354522978 0.0
9.911230082250466 9.65764729394159 0.0
9.921953841410854 6.851023993342036 0.0
9.912065178606017 5.448170483544033 0.0
9.911660025326261 3.861846960030188 0.0
9.914847467973438 3.14501593945607 0.0
9.913397459621425 5.849999999993703 0.0
9.913397459621425 7.849999999996735 0.0
9.906916878988277 2.15455769998631 0.0
9.913397459621425 8.349999999997479 0.0
9.909472363117661 1.640528221515488 0.0
9.913987325695956 1.152857110636247 0.0
9.913397459621425 8.849999999998241 0.0
0.9100099990995943 2.614215977520411 0.0
0.8395284981715456 7.451196254860987 0.0
9.723278867451556 9.898135916635193 0.0
9.723316350887044 0.09841820909386662 0.0
1.385819164827588 4.454539963646463 0.0
1.338343629665047 5.523111536005823 0.0
1.377179700550677 0.6809168304959698 0.0
1.418060461092743 9.285896715136046 0.0
9.91268220142518 0.1457914080939694 0.0
9.906737126737994 9.845745933882352 0.0
0.7108351382691361 6.537941170074089 0.0
1.527735020267026 6.915620208855231 0.0
1.630993885659103 7.838271825205868 0.0
2.232760943566823 7.370850737296832 0.0
2.243414218068206 6.688299277952821 0.0
2.779655053105118 7.021588754814074 0.0
2.80227799359795 7.632420170547022 0.0
3.282022065908813 7.305859666021318 0.0
3.327597298795347 7.857554136825748 0.0
3.743210251018715 7.549183328204379 0.0
3.716353232200752 7.062036086888612 0.0
4.111978858674101 7.27497101169417 0.0
4.104192177581432 6.879858986267289 0.0
4.436230765617037 7.045693351607117 0.0
4.430360014817357 6.703971783962796 0.0
4.732390145036301 6.849841042423394 0.0
5.056161327708878 5.095276573498806 0.0
5.111586796021131 4.999081142133581 0.0
5.169267363407189 5.09444870412406 0.0
5.223795108752053 4.996986220359468 0.0
5.281480803887719 5.092780870372803 0.0
5.335670761900611 4.994887492556936 0.0
5.393485214772442 5.090486192743301 0.0
5.447323082877892 4.992601527033996 0.0
5.505243219343024 5.087953380710069 0.0
5.558739102026105 4.990287787962959 0.0
5.616491581184779 5.085335255235766 0.0
5.669852346908056 4.9879269227514 0.0
5.727502713908907 5.082679981817038 0.0
5.780766004135139 4.988313988715834 0.0
5.838244881129535 5.080480568766611 0.0
5.891357695677371 4.986433849408193 0.0
5.948696036767613 5.077969900389505 0.0
6.001601341641615 4.981313698556656 0.0
6.058851024265095 5.074871552128682 0.0
6.111614020704875 4.978360695880202 0.0
6.168801161530775 5.072044953270978 0.0
6.221368818778567 4.975825765213497 0.0
6.278268309066882 5.066182320461055 0.0
6.330814273567539 4.972837984645718 0.0
6.387565032421376 5.062889771971895 0.0
6.437476667631405 4.971693683589553 0.0
[...]
POINT_DATA 2538
VECTORS disp float
4.122064883488813e-12 4.3405281593417845e-12 0.0
1.1787983661113729e-13 9.555213504249401e-14 0.0
0.0005000000002892809 6.897873115395673e-13 0.0
0.0004999999847631338 -1.6978557027074704e-11 0.0
0.00026913759869374396 0.0001155174901144022 0.0
0.00035783133442444676 -1.2004615492867757e-6 0.0
0.00029266458514970337 -9.495767876419542e-6 0.0
-8.926887073532899e-13 -1.0707836149006785e-12 0.0
2.8669004039530247e-13 3.786930870477756e-13 0.0
1.4782324532428407e-13 -2.415042820914723e-13 0.0
6.796936982750047e-14 -1.100767138665116e-13 0.0
-2.6614615543139996e-14 -3.7431147830869356e-13 0.0
3.104011495270428e-14 -4.825249399660831e-13 0.0
2.8848562054951266e-14 -5.775761837914116e-13 0.0
4.2932424438237034e-14 -6.379919888959706e-13 0.0
2.880203873926415e-14 -6.701462077418878e-13 0.0
4.2624172340162324e-14 -6.725479096180757e-13 0.0
3.610132930704503e-14 -6.820623069689776e-13 0.0
3.0918451845753374e-14 -7.109987467235751e-13 0.0
2.495794205042936e-14 -7.407356217143292e-13 0.0
2.7101896063535197e-14 -7.04147331867113e-13 0.0
4.412857478003226e-14 -7.69844823595602e-13 0.0
3.254669506475544e-14 -7.179145708268812e-13 0.0
3.268642841963119e-14 -7.330333586670526e-13 0.0
9.529336406760045e-14 -7.561065435394479e-13 0.0
7.280661989947967e-14 -6.606279701658414e-13 0.0
8.767340047690426e-14 -5.560773589916262e-13 0.0
8.526299291938814e-14 -4.829986362937339e-13 0.0
2.240296687690514e-14 -4.506263948073422e-13 0.0
4.128712540174144e-14 -4.596252217163333e-13 0.0
-1.3585811603589193e-14 -5.279093850535548e-13 0.0
-6.794418271237909e-14 -9.178449821180222e-13 0.0
1.8875268853676188e-6 -7.217262214615037e-7 0.0
4.790315416954462e-6 -1.8725361593659958e-6 0.0
8.980403119289335e-6 -3.254516571734984e-6 0.0
1.4170831187642189e-5 -4.881016399027403e-6 0.0
1.970656189910245e-5 -6.567391106680582e-6 0.0
2.5581355786256398e-5 -8.223229846406208e-6 0.0
3.17504945438868e-5 -9.684823696741712e-6 0.0
3.772478105101453e-5 -1.1031039080027275e-5 0.0
4.356247757070177e-5 -1.229976509070219e-5 0.0
4.9278289159004465e-5 -1.3455441827627482e-5 0.0
5.478944979627474e-5 -1.4589417906572609e-5 0.0
6.022397745144518e-5 -1.565634741851511e-5 0.0
6.547591279453346e-5 -1.6671637477494515e-5 0.0
7.055841035750851e-5 -1.768848442023714e-5 0.0
7.553583674898554e-5 -1.8698526409377947e-5 0.0
8.037613865580176e-5 -1.9729043987717217e-5 0.0
8.512654486468824e-5 -2.076605392101787e-5 0.0
8.978166298436004e-5 -2.177822429941222e-5 0.0
9.430752572168884e-5 -2.279075234900977e-5 0.0
9.87678693120871e-5 -2.380803560950119e-5 0.0
0.00010317318668429827 -2.484104242056282e-5 0.0
0.00010753027045368189 -2.5897290607019466e-5 0.0
0.00011185820881997617 -2.6971820469760552e-5 0.0
0.00011614457631548934 -2.8053537475357495e-5 0.0
0.00012043836570776466 -2.9145216990053438e-5 0.0
0.00012469983769225782 -3.0231711567934067e-5 0.0
0.00012892624857790004 -3.130734008902731e-5 0.0
0.00013315147698585394 -3.235797701439429e-5 0.0
0.00013736473929028755 -3.341937369012873e-5 0.0
0.0001415571065682167 -3.447701028376484e-5 0.0
0.00014580101070700671 -3.5510575095976744e-5 0.0
0.0001500055121517338 -3.650649037208678e-5 0.0
0.00015415149182382052 -3.7468757162145733e-5 0.0
0.00015833480392948523 -3.8407364657786646e-5 0.0
0.00016245988475592732 -3.93441423714699e-5 0.0
0.0001664524111858296 -4.025674662704462e-5 0.0
0.00017034633141134673 -4.1138188510631535e-5 0.0
0.00017407693809784382 -4.2035607069098936e-5 0.0
0.00017758814257770665 -4.296257617768269e-5 0.0
0.00018077795372782162 -4.388050985152311e-5 0.0
0.00018344867416929587 -4.4795677023539356e-5 0.0
0.0001856408738661139 -4.5875939917776345e-5 0.0
0.00018876799590728695 -4.6618162224337804e-5 0.0
0.00019231015316573667 -4.779474165189691e-5 0.0
0.0001959702242877025 -4.92557381577928e-5 0.0
0.00020014537112819023 -5.0840175885378223e-5 0.0
0.00020478102894450957 -5.2838839570705836e-5 0.0
0.00020997739134445134 -5.4751221547375475e-5 0.0
0.0002154150083154843 -5.6884968949253955e-5 0.0
0.0002212356634326726 -5.798672081125565e-5 0.0
0.000227196706882659 -5.845395408429092e-5 0.0
0.00023362305891978092 -5.879145461660682e-5 0.0
0.00023990243746900466 -5.911852315873935e-5 0.0
0.00024632076369343007 -5.939693963158286e-5 0.0
0.0002529802855285653 -5.9692434554176196e-5 0.0
0.00025980029300149706 -5.991909494495733e-5 0.0
0.0002663620887782257 -6.0087370960945795e-5 0.0
0.00027265006458421866 -6.0188278281143064e-5 0.0
0.0002786075284349754 -6.022826014232281e-5 0.0
0.00028437006212861344 -6.0220363969726783e-5 0.0
0.00028997115370217775 -6.020807865776553e-5 0.0
0.00029552262419364175 -6.019067461168216e-5 0.0
0.00030098362493681963 -6.018446661596756e-5 0.0
0.00030633880323553285 -6.023389224359439e-5 0.0
0.0003116313727078119 -6.036023578778962e-5 0.0
0.0003168150909361011 -6.070432696123965e-5 0.0
0.0003219387030730088 -6.1026688953350826e-5 0.0
0.00032706452249913994 -6.137090409637194e-5 0.0
0.00033226498164671875 -6.175523494892165e-5 0.0
0.00033751869230624746 -6.21719378695143e-5 0.0
0.0003427899646995052 -6.252178078659822e-5 0.0
0.00034816900023473227 -6.27076669721583e-5 0.0
0.0003534784399927244 -6.262989553564729e-5 0.0
0.00035897433094558156 -6.234414581730292e-5 0.0
0.00036442715420088694 -6.220237680277171e-5 0.0
0.0003698771359975142 -6.210272388097694e-5 0.0
0.00037524080169517904 -6.199240662253574e-5 0.0
0.0003802199016043405 -6.188350478598523e-5 0.0
0.0003848530916224512 -6.175278704574253e-5 0.0
0.0003892369920796066 -6.155308269278872e-5 0.0
0.0003934802150280752 -6.135134575673972e-5 0.0
0.00039746511016146535 -6.111548137860878e-5 0.0
0.00040140279412820404 -6.0864708569887435e-5 0.0
0.0004053122365934233 -6.057620325070626e-5 0.0
0.0004090970195485962 -6.024732281886088e-5 0.0
0.0004129068841320705 -5.989842935156064e-5 0.0
0.00041676622492506723 -5.943903449326124e-5 0.0
0.0004204183235679405 -5.888819972087456e-5 0.0
0.0004241561822725718 -5.8266729087876987e-5 0.0
0.00042816393184224157 -5.746687124894109e-5 0.0
0.0004322269473813689 -5.633850499350691e-5 0.0
0.0004359218943727316 -5.480194958952421e-5 0.0
0.0004397006178165085 -5.302637706258077e-5 0.0
0.00044365250395690003 -5.105496419500335e-5 0.0
0.00044792988561269994 -4.884648517367412e-5 0.0
0.00045200438356994045 -4.568561464033282e-5 0.0
0.0004559105383310644 -4.075772731623612e-5 0.0
0.0004641459217096191 -3.5874870706004214e-5 0.0
0.0004708753625205413 -2.5748973185178644e-5 0.0
0.000500000003092059 2.2531141101033716e-12 0.0
0.0004999999986567995 -1.9365759703444974e-12 0.0
0.0004999999998384425 7.56841352844325e-14 0.0
0.0004999999995903168 -2.647244194750238e-13 0.0
0.0004999999998449138 1.131926552424751e-13 0.0
0.0004999999998346711 3.1380737391545136e-13 0.0
0.0004999999999182977 4.560135904101331e-13 0.0
0.0004999999999517407 5.419710157376075e-13 0.0
0.0004999999999320939 5.580350393608839e-13 0.0
0.0004999999999294188 5.53196117529876e-13 0.0
0.0004999999999249846 5.266088650054682e-13 0.0
0.0004999999998900877 5.617717337780152e-13 0.0
0.0004999999999031122 5.377687946635895e-13 0.0
0.000499999999891885 5.491553848852143e-13 0.0
0.0004999999998897215 5.59841907264282e-13 0.0
0.0004999999998836357 5.556857341166468e-13 0.0
0.0004999999998771679 5.566875823788427e-13 0.0
0.000499999999875516 4.814081601203273e-13 0.0
0.0004999999997403346 3.4332602289836836e-13 0.0
0.0004999999998296931 2.3380458278507207e-13 0.0
0.0004999999998173819 2.3912505023144253e-13 0.0
0.0004999999997937897 2.205993723627828e-13 0.0
0.0004999999998806554 2.1020065053152032e-13 0.0
0.0004999999998876408 2.481204043804361e-13 0.0
0.0004999999999192394 2.686007165479152e-13 0.0
0.00047021754902108715 6.903045914459071e-6 0.0
0.00043399724102882937 7.804854206307933e-6 0.0
0.00039920487461390014 4.597813897681194e-6 0.0
0.00037541748079869357 -3.2838901607685264e-7 0.0
0.00035752496546691596 -1.5811554482048714e-5 0.0
0.0003559618846937847 -2.5914728210089834e-5 0.0
0.00035395448361569374 -3.789380980905521e-5 0.0
0.00035031374492442536 -4.6853567069462866e-5 0.0
0.0003459227615621447 -5.252414604485958e-5 0.0
0.0003406380292646442 -5.6201663645989426e-5 0.0
0.00033548255581227176 -5.801005570683443e-5 0.0
0.00033093344164471824 -5.6060255681991606e-5 0.0
0.00032860926212461335 -4.999145492182907e-5 0.0
0.00032464517124293176 -4.0987331053050376e-5 0.0
0.00031896910265876663 -3.272767044600089e-5 0.0
0.0003091416355520542 -2.446151726675336e-5 0.0
0.00028919944218298084 -4.4730248585087843e-7 0.0
0.00028590699236889897 6.2592199792022985e-6 0.0
0.00028194910568481895 1.1484508661113266e-5 0.0
0.00027734287896512305 1.6735261835743928e-5 0.0
0.0002723876224503161 2.1650561071750534e-5 0.0
0.00026824377739320194 2.7129549551851173e-5 0.0
0.00026429371161139565 3.331644911393845e-5 0.0
0.0002608894426657722 3.849355686561005e-5 0.0
0.00025874929039593913 4.5130601684871234e-5 0.0
0.00025778533587307687 5.276756823354449e-5 0.0
0.0002606866923135654 6.608597109498202e-5 0.0
0.00026424456677714715 8.71813929395784e-5 0.0
0.00023336929233781146 0.00011620910511186149 0.0
0.0001921562034097409 0.00011718873327926956 0.0
0.00015249345109200144 0.00011170458236855481 0.0
0.00010591435430414035 8.776253148946815e-5 0.0
0.00013803008893716165 -3.185709050150242e-5 0.0
0.00034039099116226634 -5.7455693609072336e-5 0.0
0.00016742499939585774 -3.886234452923074e-5 0.0
0.00030385639372117846 -5.591658740808353e-5 0.0
0.00018988225502687865 -4.544327521713904e-5 0.0
0.0002622782188761163 -5.417149940237855e-5 0.0
0.00021760505460445917 -5.1937294423360117e-5 0.0
0.00037352160080290344 -5.734330295994486e-5 0.0
0.00011331384459145407 -2.5848224435573147e-5 0.0
0.00039515740697044035 -5.6068874171341074e-5 0.0
9.13388891216725e-5 -2.046543720537744e-5 0.0
9.52074121061031e-6 -1.5102462220599228e-6 0.0
0.00048322347767076017 7.754769906983348e-7 0.0
0.0002938617268703089 -8.953788309026526e-6 0.0
0.00032310916821178475 -5.109790446405159e-5 0.0
0.00027494446920626965 -3.794797047523896e-6 0.0
0.0002612126266391916 2.1503688290920838e-5 0.0
0.0004151501827727813 -5.5024758740528e-5 0.0
6.832077780593017e-5 -1.5344286316169254e-5 0.0
6.3758204479582155e-6 -1.190912554271896e-6 0.0
0.0004891249546628715 6.994937279955821e-7 0.0
0.0004765229543662518 8.252821317905745e-7 0.0
1.2695594159152281e-5 -1.7734347658774584e-6 0.0
0.0004310290008492956 -5.1601468833666886e-5 0.0
4.6036697302393226e-5 -1.0169758632286628e-5 0.0
0.00034348354881407123 -4.9979066338614354e-5 0.0
0.0002485507315276519 3.7141068979521086e-5 0.0
4.584431655731991e-6 -7.22645813893835e-7 0.0
0.0004919960966670261 2.1295993226275795e-7 0.0
0.00018162595218218126 -4.318546156457241e-5 0.0
0.00020113534573472212 -4.848882845607562e-5 0.0
0.00028719878025489657 -5.531053197255744e-5 0.0
0.00023713023899845346 -5.286469961374042e-5 0.0
0.00031940395521252746 -5.664332458048642e-5 0.0
0.0003560722455875513 -5.788898222798552e-5 0.0
0.00015616596644659606 -3.627593160831495e-5 0.0
0.00012598522462539539 -2.9139583823750493e-5 0.0
0.0004426361208586944 -4.6316740322646416e-5 0.0
2.7861275691270258e-5 -6.311518769344642e-6 0.0
0.00047407375314430824 -1.3149983586648843e-6 0.0
1.5168335720839815e-5 -8.461505250677209e-7 0.0
0.0004923960426866979 -1.0673423159950202e-6 0.0
2.9722240283432847e-6 -1.9856168601209513e-7 0.0
0.0003573450388589586 -3.934870410107858e-5 0.0
0.00024555240660890243 4.842071022321173e-5 0.0
0.0004707049390510346 -2.056513380913083e-6 0.0
2.377757595757589e-5 1.7168213982052136e-6 0.0
7.72914106468649e-6 -1.4331202432609435e-6 0.0
0.0004861190312923572 7.290880360322236e-7 0.0
0.00031232750707172515 -3.267597976160155e-5 0.0
0.0002687843248814652 1.0350534012236057e-5 0.0
1.038162738833356e-5 -2.419964689543896e-6 0.0
0.00045854074714925437 -3.405856762519358e-5 0.0
0.0003294301405273811 -5.755341530687667e-5 0.0
0.00024941259072734737 -5.386263152772744e-5 0.0
0.00017556470285618023 -4.1007863458895525e-5 0.0
0.00014705668299708696 -3.4306363939272145e-5 0.0
0.0002756871414191606 -5.4718653630439995e-5 0.0
0.00038261519737311107 -5.708979971253416e-5 0.0
0.00010476398524984925 -2.362325092722753e-5 0.0
0.0004035311866921051 -5.595005130741528e-5 0.0
8.154374774972053e-5 -1.8098039352478963e-5 0.0
5.695529569956451e-5 -1.2711451938917217e-5 0.0
0.0004227392199217827 -5.3647018552435395e-5 0.0
0.00016894299450037213 6.713811668227562e-5 0.0
0.00040966737889983393 -8.054427478627658e-6 0.0
0.0004913379762133284 -1.6255457285714794e-6 0.0
1.635013544892764e-6 -2.3345254288958804e-7 0.0
0.0002460092581100698 7.125675994705241e-5 0.0
0.0003646740782819657 -2.0590791002549693e-5 0.0
2.878833009498175e-5 3.142248970498578e-6 0.0
0.00047674409237967723 -1.4262821754953131e-6 0.0
2.4893343276277197e-6 -9.816826968911843e-7 0.0
0.00047578704873401116 -1.5526016718435904e-5 0.0
0.00038363671354444274 -1.1191507518011209e-5 0.0
0.000387805565916698 -1.624694235250059e-5 0.0
0.00041846011425930737 -1.0425959091145378e-5 0.0
0.0003961160871258726 -1.4192042737691743e-5 0.0
0.00037270000738404005 -2.0451226473799456e-5 0.0
0.0003768491815138734 -1.7142037991848077e-5 0.0
0.0004008168340257546 -1.217197726481699e-5 0.0
0.0003828123086239664 -1.4262070983072491e-5 0.0
0.0004057271733103105 -1.0391661400780121e-5 0.0
0.0003890251435632602 -1.2044725626769516e-5 0.0
0.0003679138296977783 -1.5720541640477053e-5 0.0
0.0003734942629027201 -1.2834124647924157e-5 0.0
0.00035536508233893787 -1.5863266425289227e-5 0.0
0.0003597029366634676 -1.2555574195402055e-5 0.0
0.00034365602238652034 -1.510763791926115e-5 0.0
0.00034755612174483655 -9.81804747195053e-6 0.0
0.00029082336686582467 -5.9841444943488385e-6 0.0
0.0002869418573754228 -7.508527802755865e-6 0.0
0.00028737236780887666 -4.684303754808046e-6 0.0
0.00028227306879164413 -6.72912306765258e-6 0.0
0.0002837675538082707 -4.216990957655128e-6 0.0
0.00027854812539407836 -5.812585105690928e-6 0.0
0.0002806317204922061 -3.6995432264870475e-6 0.0
0.0002752306731727496 -5.244644211633322e-6 0.0
0.0002776562218355534 -3.320659391416733e-6 0.0
0.0002721011141353765 -4.893311709288737e-6 0.0
0.00027477470841339385 -3.04449218363825e-6 0.0
0.000269263446793967 -4.486196308668325e-6 0.0
0.0002721402040745709 -2.849216780188254e-6 0.0
0.00026682646319504196 -4.008532042654686e-6 0.0
0.00026968665030620655 -2.404270090550338e-6 0.0
0.00026438333187330676 -3.52481026207707e-6 0.0
0.0002674268509580912 -2.1512632955395926e-6 0.0
0.00026190534190560083 -3.364334650711882e-6 0.0
0.0002652414253994098 -2.022943966531428e-6 0.0
0.0002597316795600125 -3.0643365197365117e-6 0.0
0.0002631848514929443 -1.7888542776787463e-6 0.0
0.00025767570158154965 -2.797678137256901e-6 0.0
0.000261063253419093 -1.6313541370174348e-6 0.0
0.000255660949128269 -2.635620634610715e-6 0.0
0.0002591316205934547 -1.5773268421280893e-6 0.0
0.00025389150193982283 -2.4934398772550952e-6 0.0
0.00025727091281651214 -1.4056198358609853e-6 0.0
0.0002518742049525918 -2.436757787603053e-6 0.0
0.0002553917797235646 -1.3489145987493185e-6 0.0
0.0002487860634047978 -2.69249994080762e-6 0.0
0.00025382147332177337 -1.3934969716730615e-6 0.0
0.0002480878233346043 -2.3638557591162405e-6 0.0
0.0002520841962592882 -1.3922689119810867e-6 0.0
0.00024652777886411276 -2.402468172444587e-6 0.0
0.00025042991530058596 -1.5055469660902358e-6 0.0
0.0002451546605083867 -2.487934239329187e-6 0.0
0.00024876145610394743 -1.6584279732309696e-6 0.0
0.000243552673862211 -2.6399920938350764e-6 0.0
0.00026690995475285036 -6.675577639016463e-6 0.0
0.00024712932378720675 -1.8987091677040382e-6 0.0
0.0002551923091528085 -4.475651281754653e-6 0.0
0.00024239683766384202 -3.6187319224638557e-6 0.0
0.00024162661654130932 -2.989703614541928e-6 0.0
0.00024549417032558774 -2.251166473717255e-6 0.0
0.00023969724343254683 -3.4194508296171498e-6 0.0
0.00023569341952326496 -4.137473196779099e-6 0.0
0.00023356750164873732 -4.646526191456515e-6 0.0
0.00024361198444482608 -2.7210184683585045e-6 0.0
0.0002491883307511318 -1.5748461474776397e-6 0.0
0.0002569782522837021 -5.54608259516423e-7 0.0
0.0002474210526863307 -2.105543323524019e-6 0.0
0.0002531751580076513 -9.285194767576962e-7 0.0
0.00025126848809622313 -1.5921054724639861e-6 0.0
0.00022946779676307846 -5.337528543860196e-6 0.0
0.00022759702979238312 -5.8382019224600145e-6 0.0
0.000257097445974037 -4.2614369603347044e-7 0.0
0.00022305671684124697 -6.5451265889633286e-6 0.0
0.00022150745039476377 -7.04794881068718e-6 0.0
0.0002554066223721625 -1.1446990896868698e-6 0.0
0.0002609524479661641 -9.232006653918655e-8 0.0
0.00021655804192645807 -7.733082344168592e-6 0.0
0.00021490908443794006 -8.312924918532923e-6 0.0
0.0002595276692878424 -8.608224270837447e-7 0.0
0.00026523133141038654 1.6631793319659057e-7 0.0
0.0002101475726803703 -8.87047406973172e-6 0.0
0.0002084655474169922 -9.531497072040922e-6 0.0
0.0002639109267221265 -7.273354708902034e-7 0.0
0.00026985030861116627 2.923415436029036e-7 0.0
0.00020393772446163804 -9.929282583274108e-6 0.0
0.00020195894433296254 -1.0668024079562072e-5 0.0
0.00026874405310589497 -7.09172688681781e-7 0.0
0.0002748033514376856 2.8678215012760784e-7 0.0
0.00019725836725405607 -1.0951787175660349e-5 0.0
0.000195474169504689 -1.1764958654780085e-5 0.0
0.0001904693048213652 -1.1982433149445519e-5 0.0
0.00019225019666591073 -1.1199002564292643e-5 0.0
0.0002622218218776791 -1.7853639933726331e-6 0.0
0.00027380220522445545 -8.619705519943101e-7 0.0
0.0002800890015685586 1.4885332967782432e-7 0.0
0.0002811227068500758 1.25294673076866e-6 0.0
0.000265524564660388 -7.39993356367947e-7 0.0
0.0002867307011242529 1.1258760680388181e-6 0.0
0.0002877435357698799 2.13843018420936e-6 0.0
0.0002936614441863386 2.0548825247152437e-6 0.0
0.00018920869533332278 -1.2854458966779937e-5 0.0
0.00018418341219375876 -1.2896767965948299e-5 0.0
0.00019407154934762702 -1.2697052860298653e-5 0.0
0.00027903124596645153 -1.1922281649081717e-6 0.0
0.00018309705508967594 -1.3787189140828239e-5 0.0
0.00017804121989011126 -1.368656287974367e-5 0.0
0.0002741012551415026 -1.317757990556965e-6 0.0
0.0001770821764778857 -1.4552798152205693e-5 0.0
0.0001719710983785069 -1.4328996841481517e-5 0.0
0.00017112364995679294 -1.521383259132351e-5 0.0
0.00016600856116459639 -1.4825879099194157e-5 0.0
0.00016669106709653545 -1.4039094789730053e-5 0.0
0.00016005932306223402 -1.4505776141176245e-5 0.0
0.00016084746580627762 -1.3687094364052779e-5 0.0
0.00016454393613632732 -1.5755061945880934e-5 0.0
0.00015355060847944892 -1.409275869039517e-5 0.0
0.00015430011251458967 -1.3321107778125422e-5 0.0
0.0001703457588187349 -1.6216122175178793e-5 0.0
0.0001647418274931434 -1.677447474302238e-5 0.0
0.000147055047939653 -1.3568761133496847e-5 0.0
0.00014753257416000144 -1.2876737270319557e-5 0.0
0.00029476363077544156 2.8902626414214434e-6 0.0
0.00030109305837330944 2.831625524109128e-6 0.0
0.00016961199805156607 -1.726658540087935e-5 0.0
0.00016416033278096202 -1.7766936030467436e-5 0.0
0.0003022060368821922 3.540775519617984e-6 0.0
0.000309048364695504 3.507950489041659e-6 0.0
0.00030765199123281934 2.6106869149141696e-6 0.0
0.0003158978080581719 3.3981011068640085e-6 0.0
0.00031467937433338715 2.2864854706894447e-6 0.0
0.00032314748809972804 3.2230932473815264e-6 0.0
0.0003223801313366509 1.9352371902197052e-6 0.0
0.0003313791591392733 3.1050019463948626e-6 0.0
0.0003298945998746653 1.6059572686691678e-6 0.0
0.00033207528155041344 4.015913288020128e-6 0.0
0.00033932000543967524 2.874366360053465e-6 0.0
0.0003374144534610844 1.0894990987672952e-6 0.0
0.0001690035948062372 -1.8328182592808774e-5 0.0
0.00013973906360919246 -1.3032152126850855e-5 0.0
0.00014006424746080875 -1.2362502830526643e-5 0.0
0.0003287186475997364 -6.783652731461818e-7 0.0
0.0003360100320663745 -1.4993444311979704e-6 0.0
0.0003447795909684634 4.5124174098850584e-7 0.0
0.0003279566722716458 -3.642043693726398e-6 0.0
0.0001637412214647219 -1.8783162237858018e-5 0.0
0.00034348797914092146 -2.5697601449710714e-6 0.0
0.0003522437693368653 -3.636149024718783e-7 0.0
0.00016843133804630888 -1.9413223681693927e-5 0.0