# vtk DataFile Version 2.0
phase field modeling fracture
ASCII
DATASET UNSTRUCTURED_GRID
POINTS 2538 float
0.0 0.0 0.0
10.0 0.0 0.0
0.0 10.0 0.0
10.0 10.0 0.0
0.0 4.9995 0.0
0.0 5.0005 0.0
5.0 5.0 0.0
0.9416964895726688 0.0 0.0
1.803581725054446 0.0 0.0
2.592419885431098 0.0 0.0
3.314401822861676 0.0 0.0
3.975193910351406 0.0 0.0
4.579982132660152 0.0 0.0
5.133512780936812 0.0 0.0
5.640130319506143 0.0 0.0
6.103810708661955 0.0 0.0
6.528192895506818 0.0 0.0
6.916607540127679 0.0 0.0
7.272102969376355 0.0 0.0
7.597469242948583 0.0 0.0
7.895259826292669 0.0 0.0
8.167811885738017 0.0 0.0
8.417264413845215 0.0 0.0
8.645575169389538 0.0 0.0
8.854535961159101 0.0 0.0
9.045786767735546 0.0 0.0
9.220828555767493 0.0 0.0
9.38103509633881 0.0 0.0
9.527663687265145 0.0 0.0
9.661865124984566 0.0 0.0
9.784692609918062 0.0 0.0
9.897110148790482 0.0 0.0
10.0 0.09999999999992584 0.0
10.0 0.199999999999856 0.0
10.0 0.2999999999997771 0.0
10.0 0.3999999999996677 0.0
10.0 0.4999999999995511 0.0
10.0 0.5999999999994683 0.0
10.0 0.6999999999993983 0.0
10.0 0.7999999999993286 0.0
10.0 0.8999999999992587 0.0
10.0 0.9999999999991888 0.0
10.0 1.099999999999119 0.0
10.0 1.199999999999033 0.0
10.0 1.299999999998852 0.0
10.0 1.399999999998576 0.0
10.0 1.499999999998284 0.0
10.0 1.599999999997992 0.0
10.0 1.6999999999977 0.0
10.0 1.799999999997408 0.0
10.0 1.899999999997116 0.0
10.0 1.999999999996825 0.0
10.0 2.099999999996533 0.0
10.0 2.199999999996241 0.0
10.0 2.299999999995949 0.0
10.0 2.399999999995657 0.0
10.0 2.499999999995365 0.0
10.0 2.599999999995073 0.0
10.0 2.699999999994782 0.0
10.0 2.79999999999449 0.0
10.0 2.899999999994198 0.0
10.0 2.999999999993906 0.0
10.0 3.099999999993614 0.0
10.0 3.199999999993322 0.0
10.0 3.299999999993029 0.0
10.0 3.399999999992738 0.0
10.0 3.499999999992446 0.0
10.0 3.599999999992154 0.0
10.0 3.699999999991863 0.0
10.0 3.799999999991571 0.0
10.0 3.899999999991278 0.0
10.0 3.999999999991022 0.0
10.0 4.099999999991035 0.0
10.0 4.199999999991187 0.0
10.0 4.299999999991338 0.0
10.0 4.399999999991491 0.0
10.0 4.499999999991642 0.0
10.0 4.599999999991795 0.0
10.0 4.699999999991947 0.0
10.0 4.799999999992099 0.0
10.0 4.89999999999225 0.0
10.0 4.999999999992403 0.0
10.0 5.099999999992555 0.0
10.0 5.199999999992706 0.0
10.0 5.299999999992858 0.0
10.0 5.39999999999301 0.0
10.0 5.499999999993161 0.0
10.0 5.599999999993313 0.0
10.0 5.699999999993466 0.0
10.0 5.799999999993618 0.0
10.0 5.899999999993771 0.0
10.0 5.999999999993922 0.0
10.0 6.099999999994074 0.0
10.0 6.199999999994227 0.0
10.0 6.299999999994378 0.0
10.0 6.39999999999453 0.0
10.0 6.499999999994682 0.0
10.0 6.599999999994833 0.0
10.0 6.699999999994986 0.0
10.0 6.799999999995138 0.0
10.0 6.899999999995289 0.0
10.0 6.999999999995442 0.0
10.0 7.099999999995594 0.0
10.0 7.199999999995747 0.0
10.0 7.299999999995897 0.0
10.0 7.39999999999605 0.0
10.0 7.499999999996202 0.0
10.0 7.599999999996353 0.0
10.0 7.699999999996505 0.0
10.0 7.799999999996658 0.0
10.0 7.899999999996808 0.0
10.0 7.999999999996962 0.0
10.0 8.099999999997113 0.0
10.0 8.199999999997265 0.0
10.0 8.299999999997418 0.0
10.0 8.399999999997569 0.0
10.0 8.499999999997721 0.0
10.0 8.599999999997873 0.0
10.0 8.699999999998024 0.0
10.0 8.799999999998176 0.0
10.0 8.899999999998329 0.0
10.0 8.99999999999848 0.0
10.0 9.099999999998634 0.0
10.0 9.199999999998786 0.0
10.0 9.299999999998937 0.0
10.0 9.399999999999089 0.0
10.0 9.499999999999241 0.0
10.0 9.599999999999392 0.0
10.0 9.699999999999545 0.0
10.0 9.799999999999697 0.0
10.0 9.899999999999848 0.0
9.897110148790565 10.0 0.0
9.784692609918244 10.0 0.0
9.66186512498486 10.0 0.0
9.527663687265571 10.0 0.0
9.381035096339392 10.0 0.0
9.220828555768257 10.0 0.0
9.045786767736512 10.0 0.0
8.854535961160305 10.0 0.0
8.645575169391027 10.0 0.0
8.417264413847017 10.0 0.0
8.167811885740178 10.0 0.0
7.895259826295246 10.0 0.0
7.597469242951631 10.0 0.0
7.272102969379938 10.0 0.0
6.916607540131873 10.0 0.0
6.528192895511704 10.0 0.0
6.103810708667616 10.0 0.0
5.640130319512691 10.0 0.0
5.13351278094435 10.0 0.0
4.579982132668816 10.0 0.0
3.975193910361222 10.0 0.0
3.314401822869852 10.0 0.0
2.592419885437257 10.0 0.0
1.803581725058137 10.0 0.0
0.9416964895740705 10.0 0.0
0.0 9.00010000000243 0.0
0.0 8.000200000005481 0.0
0.0 7.000300000005135 0.0
0.0 6.000400000002569 0.0
0.901790731451151 5.000409820926855 0.0
1.657200899774397 5.000334279910023 0.0
2.289991063707192 5.000271000893629 0.0
2.820065163538221 5.000217993483646 0.0
3.264096435579811 5.000173590356442 0.0
3.636051481595835 5.00013639485184 0.0
3.947629914072366 5.000105237008593 0.0
4.208632181002628 5.0000791367819 0.0
4.427267949625672 5.000057273205037 0.0
4.610414277633563 5.000038958572237 0.0
4.763831845154243 5.000023616815485 0.0
4.892346298799659 5.00001076537012 0.0
4.892346298799748 4.99998923462988 0.0
4.763831845154455 4.999976383184515 0.0
4.610414277633943 4.999961041427763 0.0
4.427267949626277 4.999942726794963 0.0
4.208632181003523 4.9999208632181 0.0
3.94762991407365 4.999894762991407 0.0
3.636051481597624 4.99986360514816 0.0
3.264096435582253 4.999826409643559 0.0
2.820065163541503 4.999782006516354 0.0
2.289991063711534 4.999728999106371 0.0
1.657200899778495 4.999665720089978 0.0
0.9017907314530094 4.999590179073145 0.0
0.0 3.999600000002013 0.0
0.0 2.999700000005187 0.0
0.0 1.99980000000512 0.0
0.0 0.9999000000025537 0.0
9.897889398521345 2.93573355845387 0.0
9.906568249974548 7.060009441434234 0.0
9.913122631074113 3.64016132281653 0.0
9.922462129543863 6.354535290629151 0.0
9.917693659967533 4.354211663134567 0.0
9.909873057440208 5.637584487339942 0.0
9.914183254994697 4.950672966925282 0.0
9.913885043715895 7.666887930262611 0.0
9.91009668007573 2.351889069770817 0.0
9.905135696074536 8.138152454502785 0.0
9.913397459621809 1.849999999997262 0.0
7.099302372137626 0.297750452375005 0.0
7.095143729410097 9.700359990366296 0.0
4.942912558701401 5.095838627899509 0.0
4.315009232304429 5.165022115481685 0.0
4.946182472483878 4.906763777264103 0.0
4.317967462990024 4.825955043772673 0.0
9.916390871492647 8.64999999999792 0.0
9.921504649680616 1.368376469890358 0.0
8.292538149791614 0.206877570318844 0.0
8.292538149793597 9.793122429681448 0.0
5.884594439766573 9.587645267048616 0.0
5.794826292691579 0.3794853783929359 0.0
9.913397459621425 9.049999999998557 0.0
9.908526577714177 0.9568239351922434 0.0
3.456851160380649 5.315740054130451 0.0
3.457889657868442 4.707121019609468 0.0
8.945214200703926 0.1503383337970344 0.0
8.950161364448409 9.8413906539257 0.0
9.913862335499305 4.055887885208452 0.0
9.916697353372683 4.650158482607802 0.0
9.919076340414442 6.049999999994006 0.0
9.906994308667635 5.25749687748192 0.0
9.917490342358025 6.655979201891897 0.0
9.915757520293784 7.343848891656911 0.0
9.910049507471042 3.363474386285078 0.0
9.914471988502868 2.647400064832979 0.0
9.91474124160965 9.337490423485129 0.0
9.916971008170838 0.6499999999994355 0.0
4.307157269264427 9.509674045029644 0.0
4.331527375865619 0.4401616696422582 0.0
9.45434939180249 9.878397030523757 0.0
9.457696120412969 0.1270877537061785 0.0
2.555070293622606 5.422044496190925 0.0
2.566232917480916 4.608001224030952 0.0
3.026511860837692 9.332320638257093 0.0
2.945561971800619 0.5895662714727601 0.0
7.7395404387124 0.2511088946967771 0.0
7.736379255744154 9.745848826372828 0.0
4.687135269408529 5.122111433928926 0.0
4.688420821504113 4.871895064967488 0.0
9.910554884115975 0.3448356354522978 0.0
9.911230082250466 9.65764729394159 0.0
9.921953841410854 6.851023993342036 0.0
9.912065178606017 5.448170483544033 0.0
9.911660025326261 3.861846960030188 0.0
9.914847467973438 3.14501593945607 0.0
9.913397459621425 5.849999999993703 0.0
9.913397459621425 7.849999999996735 0.0
9.906916878988277 2.15455769998631 0.0
9.913397459621425 8.349999999997479 0.0
9.909472363117661 1.640528221515488 0.0
9.913987325695956 1.152857110636247 0.0
9.913397459621425 8.849999999998241 0.0
0.9100099990995943 2.614215977520411 0.0
0.8395284981715456 7.451196254860987 0.0
9.723278867451556 9.898135916635193 0.0
9.723316350887044 0.09841820909386662 0.0
1.385819164827588 4.454539963646463 0.0
1.338343629665047 5.523111536005823 0.0
1.377179700550677 0.6809168304959698 0.0
1.418060461092743 9.285896715136046 0.0
9.91268220142518 0.1457914080939694 0.0
9.906737126737994 9.845745933882352 0.0
0.7108351382691361 6.537941170074089 0.0
1.527735020267026 6.915620208855231 0.0
1.630993885659103 7.838271825205868 0.0
2.232760943566823 7.370850737296832 0.0
2.243414218068206 6.688299277952821 0.0
2.779655053105118 7.021588754814074 0.0
2.80227799359795 7.632420170547022 0.0
3.282022065908813 7.305859666021318 0.0
3.327597298795347 7.857554136825748 0.0
3.743210251018715 7.549183328204379 0.0
3.716353232200752 7.062036086888612 0.0
4.111978858674101 7.27497101169417 0.0
4.104192177581432 6.879858986267289 0.0
4.436230765617037 7.045693351607117 0.0
4.430360014817357 6.703971783962796 0.0
4.732390145036301 6.849841042423394 0.0
5.056161327708878 5.095276573498806 0.0
5.111586796021131 4.999081142133581 0.0
5.169267363407189 5.09444870412406 0.0
5.223795108752053 4.996986220359468 0.0
5.281480803887719 5.092780870372803 0.0
5.335670761900611 4.994887492556936 0.0
5.393485214772442 5.090486192743301 0.0
5.447323082877892 4.992601527033996 0.0
5.505243219343024 5.087953380710069 0.0
5.558739102026105 4.990287787962959 0.0
5.616491581184779 5.085335255235766 0.0
5.669852346908056 4.9879269227514 0.0
5.727502713908907 5.082679981817038 0.0
5.780766004135139 4.988313988715834 0.0
5.838244881129535 5.080480568766611 0.0
5.891357695677371 4.986433849408193 0.0
5.948696036767613 5.077969900389505 0.0
6.001601341641615 4.981313698556656 0.0
6.058851024265095 5.074871552128682 0.0
6.111614020704875 4.978360695880202 0.0
6.168801161530775 5.072044953270978 0.0
6.221368818778567 4.975825765213497 0.0
6.278268309066882 5.066182320461055 0.0
6.330814273567539 4.972837984645718 0.0
6.387565032421376 5.062889771971895 0.0
6.437476667631405 4.971693683589553 0.0
[...]
POINT_DATA 2538
VECTORS disp float
1.6402011457083396e-11 3.981295072166259e-11 0.0
3.249569552255387e-11 -8.811356252420993e-11 0.0
0.0036999999889050623 2.8233361300275103e-11 0.0
0.003699999965237501 -9.543483975812942e-11 0.0
0.001232098697114743 0.0005049520520748973 0.0
0.002677879373076255 0.000257426626019726 0.0
0.0018210542665338318 0.00010084721918781134 0.0
3.866637022830199e-12 2.185391781421131e-12 0.0
7.490837732926099e-12 8.523253899473641e-12 0.0
6.618853335807614e-12 4.856562572505418e-12 0.0
6.3122773618953135e-12 4.463392077040492e-12 0.0
5.706845123479666e-12 3.178108653611918e-12 0.0
5.232085455690788e-12 2.12743724000667e-12 0.0
4.789600492941475e-12 1.1036268975640196e-12 0.0
4.450214787040901e-12 1.1055699877979194e-14 0.0
3.829863700059487e-12 -1.1877108668573436e-12 0.0
4.076446099495805e-12 -2.2918493162861056e-12 0.0
3.9309506238604116e-12 -3.6000741768808936e-12 0.0
3.9970419092806046e-12 -5.012830135299694e-12 0.0
4.190297448271968e-12 -6.435376741884163e-12 0.0
4.203987943041629e-12 -7.750698617895406e-12 0.0
4.531259938985792e-12 -9.334423114625619e-12 0.0
4.578075803885596e-12 -1.0624549090165582e-11 0.0
4.884722258304472e-12 -1.217893479336061e-11 0.0
5.048458074615014e-12 -1.3906531880346988e-11 0.0
5.302579973870482e-12 -1.5545070998867766e-11 0.0
5.615597814505899e-12 -1.7530951124591995e-11 0.0
6.019444673560668e-12 -1.9773711868649765e-11 0.0
6.699687666160311e-12 -2.2556150192597788e-11 0.0
6.80798558260414e-12 -2.553009543596714e-11 0.0
9.393325336633076e-12 -3.263744863417952e-11 0.0
4.298187528124971e-12 -2.955418360153174e-11 0.0
4.679862692989925e-5 -5.999168523207379e-5 0.0
8.121779874584192e-5 -0.00010300693362834507 0.0
0.00011455514433206693 -0.000140371829191526 0.0
0.00014639510644888604 -0.00017423744311305888 0.0
0.00017717348004989893 -0.0002056783292644475 0.0
0.00020750973118304093 -0.00023553090773501835 0.0
0.0002379047999937902 -0.00026390461845328714 0.0
0.0002680728124435613 -0.0002910432584781764 0.0
0.0002982813565933236 -0.00031720274731005096 0.0
0.0003286104277231262 -0.0003423795010651985 0.0
0.00035907370380664665 -0.00036679776253715644 0.0
0.0003899104059378779 -0.000390456758102137 0.0
0.0004208884194769975 -0.00041335820476528313 0.0
0.0004521588076419258 -0.0004356814125546051 0.0
0.0004839131300847549 -0.00045737059328907674 0.0
0.0005158077309736446 -0.0004784080354700367 0.0
0.0005480690889000449 -0.0004989221179537255 0.0
0.0005806909368098201 -0.0005188047076055221 0.0
0.0006136445792529002 -0.0005381734761403498 0.0
0.0006469477846195802 -0.0005570206009399198 0.0
0.000680642368821214 -0.0005753468398550171 0.0
0.0007146478598836757 -0.0005931416900039452 0.0
0.0007491723558499012 -0.0006104825903677608 0.0
0.0007838782208286126 -0.0006272741446776038 0.0
0.0008191513661169854 -0.0006435981310001322 0.0
0.0008545769841912612 -0.0006593721821087723 0.0
0.000890436726551963 -0.0006746897345205937 0.0
0.0009265770204050788 -0.0006894484579833389 0.0
0.0009632138609411515 -0.0007037667684498143 0.0
0.0009999774719090257 -0.0007175651918839922 0.0
0.0010372380493536178 -0.0007309040941862665 0.0
0.0010747587775515185 -0.0007436872878879458 0.0
0.0011126375954935647 -0.0007559977726700972 0.0
0.001150734245542805 -0.0007677755422633046 0.0
0.001189282909659385 -0.0007790790020979151 0.0
0.0012279336523190916 -0.0007898121401559685 0.0
0.0012669311667406545 -0.0008000409573379572 0.0
0.0013061210684980093 -0.0008096676209048879 0.0
0.001345578872744765 -0.0008187173138172277 0.0
0.0013852455911340317 -0.0008272899217355802 0.0
0.0014250829654693735 -0.0008352183452322505 0.0
0.0014651981522673329 -0.0008426638904240177 0.0
0.0015055148713828024 -0.0008494956562291995 0.0
0.0015459435766184174 -0.0008558364102653334 0.0
0.0015865813551442613 -0.0008615090992881854 0.0
0.001627197575161504 -0.0008666682594350803 0.0
0.0016680194381403746 -0.000871273359449338 0.0
0.0017088561873867666 -0.0008752506232123093 0.0
0.001749751357916817 -0.0008787319912646285 0.0
0.0017907990503426671 -0.0008815825339721035 0.0
0.0018315070993704286 -0.000883722649381726 0.0
0.0018726060217096362 -0.0008853897392474472 0.0
0.0019129316002600629 -0.0008863339160298559 0.0
0.0019536930351745363 -0.0008867206054626904 0.0
0.0019926936654163768 -0.0008861690332312254 0.0
0.0020329729707704845 -0.0008850066978910402 0.0
0.002071788585968527 -0.0008832693071678479 0.0
0.0021103686653894424 -0.0008804294701221909 0.0
0.0021487924038277283 -0.0008770471455333719 0.0
0.002187062627847747 -0.0008722674226023162 0.0
0.0022250421667622602 -0.0008668099609088853 0.0
0.002263052231528144 -0.0008600650541989199 0.0
0.0023014853841587003 -0.0008525170288539559 0.0
0.0023397423059052587 -0.0008435140308409761 0.0
0.002378575042970983 -0.0008336032808949509 0.0
0.002417623136846876 -0.0008228203566038087 0.0
0.00245638086221879 -0.0008110993954215729 0.0
0.0024953475810992254 -0.0007987632376085025 0.0
0.002534497415640407 -0.0007856677371434451 0.0
0.002573675051086192 -0.0007718683542609094 0.0
0.002612578353540426 -0.0007575050298849592 0.0
0.0026516673044930444 -0.0007424073564998888 0.0
0.0026903732280974045 -0.0007267281772439616 0.0
0.002728919277232561 -0.0007106205923982611 0.0
0.002767474704442393 -0.000693810034186047 0.0
0.0028055942461753776 -0.0006765450941222744 0.0
0.002843594920464066 -0.0006587242379408829 0.0
0.0028813047447334623 -0.0006403660168698571 0.0
0.002918903225642705 -0.0006214601175273434 0.0
0.0029562526002791124 -0.0006019387355676873 0.0
0.0029933613512079264 -0.0005818351946422419 0.0
0.0030300393974640213 -0.0005612051302875542 0.0
0.0030665624185902715 -0.0005400137144480105 0.0
0.0031029169843933995 -0.0005181695241710868 0.0
0.003138929765823265 -0.0004957123810006564 0.0
0.003174791347683146 -0.00047267283615989874 0.0
0.003210621098330377 -0.00044885568751999163 0.0
0.0032461493867362097 -0.00042429496581352364 0.0
0.003281455086604045 -0.00039904221787446327 0.0
0.0033168545101878765 -0.00037293065982959113 0.0
0.0033523307150451235 -0.0003458140224552563 0.0
0.003387678646969304 -0.0003176382580331845 0.0
0.003422994347743573 -0.0002883675861411546 0.0
0.0034585691306810344 -0.00025772846884889367 0.0
0.0034948419347840738 -0.00022535426346846431 0.0
0.0035313408525341735 -0.00019101583986653195 0.0
0.0035684822318698102 -0.000153912326838855 0.0
0.003607910307213464 -0.00011270656663705324 0.0
0.0036483983479799554 -6.530660586435886e-5 0.0
0.0036999999950878474 -2.8289196333636658e-11 0.0
0.0036999999895678437 -3.134458473928445e-11 0.0
0.003699999992789605 -2.1067637372230646e-11 0.0
0.0036999999928185733 -1.852773032388493e-11 0.0
0.003699999993346262 -1.554373215011378e-11 0.0
0.0036999999936723894 -1.3371506280063472e-11 0.0
0.0036999999938079503 -1.1733742785270083e-11 0.0
0.0036999999940488873 -1.0265490854101236e-11 0.0
0.0036999999941379745 -8.91947725894137e-12 0.0
0.003699999994312973 -7.62265081545931e-12 0.0
0.0036999999945645985 -6.576328547977583e-12 0.0
0.003699999994630093 -5.225397853730006e-12 0.0
0.0036999999947760678 -4.2129879117791555e-12 0.0
0.0036999999949061642 -3.0233654169816618e-12 0.0
0.0036999999949717467 -1.8825623817178744e-12 0.0
0.003699999994981236 -6.538864374581523e-13 0.0
0.003699999995026386 5.718905632159914e-13 0.0
0.003699999994566307 1.978683395192432e-12 0.0
0.0036999999949212585 3.1258269590508952e-12 0.0
0.0036999999941412865 4.6090271720783195e-12 0.0
0.003699999994144866 5.595892448991752e-12 0.0
0.003699999993867207 6.676225330499647e-12 0.0
0.0036999999940879394 6.9642075090355774e-12 0.0
0.003699999994035169 9.38055668622616e-12 0.0
0.003699999996905956 4.095022055755502e-12 0.0
0.003423122365865361 0.00017949961471272428 0.0
0.0031855998944003423 0.00026076096424885293 0.0
0.0029734467662253495 0.00028476017581609053 0.0
0.0027949709293184047 0.0002758375104455915 0.0
0.002671743232521608 0.00014506714880111043 0.0
0.0026527191647163504 8.784638200586334e-5 0.0
0.002607749651814818 6.464148838335225e-5 0.0
0.002554115181538043 6.170036923220733e-5 0.0
0.002492416441861346 6.89378585033546e-5 0.0
0.0024271881831173137 7.771133788632819e-5 0.0
0.002359324680143332 8.61570127865589e-5 0.0
0.0022897658299484347 9.536201182888947e-5 0.0
0.0022170596807514005 0.00010277096004929688 0.0
0.002140514491839993 0.0001077621555878846 0.0
0.002056268370077031 0.00010993147628033427 0.0
0.001956211770185524 0.00011033365613216093 0.0
0.0016970204259191305 0.0001396583193807642 0.0
0.0016096176163577585 0.00015302803428467448 0.0
0.0015376591419204923 0.000159418445192464 0.0
0.0014751282317309118 0.00016410847617660877 0.0
0.0014186324484230536 0.00016855615710612966 0.0
0.0013676956731013827 0.00017368598513919957 0.0
0.0013220704218342466 0.00018080521756172932 0.0
0.0012833547388848732 0.00019144799310568213 0.0
0.0012532754740480923 0.00021032822246871372 0.0
0.0012328683517120371 0.00024122962785384327 0.0
0.0012277644829347572 0.0002956227734263423 0.0
0.0012279486889967578 0.00037688871080409383 0.0
0.001093575689067479 0.0005178602667859723 0.0
0.0008933522605499931 0.0004906779112534092 0.0
0.0006246995341624428 0.00040188575545629576 0.0
0.00033176117789022373 0.00026154843533408693 0.0
0.0009701941601633462 -0.0006741481065801056 0.0
0.0026048099542416 -0.0007208895846371557 0.0
0.0012392621338967328 -0.0007629628286846685 0.0
0.002326982332916876 -0.0008112295430966295 0.0
0.0015245357419670284 -0.0008227847187252729 0.0
0.0020490734395754756 -0.0008480039903336059 0.0
0.0017691276109546173 -0.0008481043536254142 0.0
0.0028390615520887674 -0.0006279122540973515 0.0
0.0007610645393809032 -0.0005902337640016155 0.0
0.0030168522876537003 -0.0005355791296373766 0.0
0.0005907451304259651 -0.000501978998118978 0.0
6.088682921614774e-5 -1.1066538845660719e-5 0.0
0.0036365807083328094 -9.869578894464506e-6 0.0
0.0019737385658016747 0.00012884408844907914 0.0
0.002260458688454833 0.00011902276785979307 0.0
0.0016683433662845553 0.00014336426092391268 0.0
0.0014274091685517439 0.00018063573417356505 0.0
0.0032016801385866787 -0.0004285287839994609 0.0
0.0004358763040103695 -0.0004057051038868736 0.0
4.291290860130084e-5 -1.9904376951433952e-5 0.0
0.003655035934705708 -1.6629618336068237e-5 0.0
0.003610083518553112 2.731341654723976e-6 0.0
8.136710860741935e-5 2.910939575114215e-6 0.0
0.0033444879892647536 -0.00032718795220243127 0.0
0.0003074867716651723 -0.0003059314679423629 0.0
0.002461031220660382 0.00010045887870100143 0.0
0.0012725031131356843 0.00019849909766772746 0.0
3.244931659049676e-5 -2.1433015646846177e-5 0.0
0.0036641596995010827 -1.891322075444331e-5 0.0
0.0014040288484074885 -0.0008004905050601053 0.0
0.0016454479305634275 -0.0008382391605620467 0.0
0.0022091805317646655 -0.0008328474642111002 0.0
0.0018954678812199333 -0.0008506663283400749 0.0
0.00244533307882136 -0.0007777781902152999 0.0
0.0027146680411813556 -0.0006825642795865104 0.0
0.0011319585727656842 -0.0007319831920741664 0.0
0.0008660633664232182 -0.0006383401111244917 0.0
0.0034466615273855586 -0.0002460178692825959 0.0
0.0002147925178304265 -0.00022679159026572123 0.0
0.0035852399262921715 2.2413798286903978e-5 0.0
0.00010292802103455745 1.7568522787538146e-5 0.0
0.0036701383488677427 -2.1690900256940207e-5 0.0
3.027324062906539e-5 -2.6103953638250345e-5 0.0
0.00258583760569061 8.917123948654231e-5 0.0
0.001192039879151195 0.00023213600222652848 0.0
0.003538429090994981 4.175303783012774e-5 0.0
0.000145557840956164 3.527851338497053e-5 0.0
5.15109274256655e-5 -1.677104951205248e-5 0.0
0.003645650652523696 -1.4416612585177912e-5 0.0
0.0021174337801745384 0.00012897921721537935 0.0
0.0015456187630214315 0.00017165706213930225 0.0
0.00011922360526501899 -0.00013111389439706629 0.0
0.003564891341388102 -0.00013898084331349277 0.0
0.002521439318568002 -0.0007560304661110588 0.0
0.0019731703782087415 -0.0008526176964076254 0.0
0.0013266084084817232 -0.0007834853566979639 0.0
0.0010492741923722516 -0.0007073046279282988 0.0
0.002131958408874081 -0.0008413696677339774 0.0
0.0029083856950982345 -0.0005946677167339147 0.0
0.0006926551012010645 -0.000555680264033589 0.0
0.0030936506346175767 -0.0004947267038852312 0.0
0.0005218439466426794 -0.0004596191241271748 0.0
0.0003680932567267682 -0.0003547651693216054 0.0
0.003273338899406217 -0.0003789962456654119 0.0
0.0007418355126621004 0.0002684076444473489 0.0
0.003064358955203394 0.0001857442019323201 0.0
0.003670801902709847 -2.6339339711500456e-5 0.0
2.633789390135748e-5 -2.674277332825999e-5 0.0
0.0011554638226313337 0.0003206282910681995 0.0
0.002692342827026646 0.00012548224118966896 0.0
0.00016812226343075156 5.607766388766806e-5 0.0
0.0035336014677805135 5.282853044088538e-5 0.0
5.213788680857163e-5 -5.8814387536628306e-5 0.0
0.0036399996107405025 -6.335028130079838e-5 0.0
0.0028728479550845553 0.0001966486837258106 0.0
0.002928824846795448 0.0001646859676643711 0.0
0.003159663864785915 0.00013673631326106112 0.0
0.003026638857711207 0.00014509914924722763 0.0
0.0028477096172696576 0.00015221876979533191 0.0
0.0029121945901882467 0.00015223581699057073 0.0
0.0030837117429391037 0.000134843660486476 0.0
0.0029768274493703803 0.00014530805070012338 0.0
0.0031386333323631136 0.00012205623428786019 0.0
0.0030404955088850247 0.00013074062823848574 0.0
0.002888860249126847 0.0001503015157256708 0.0
0.0029476877739600797 0.00013410053680071998 0.0
0.002817402756904244 0.0001496726213516939 0.0
0.0028652643250174645 0.00013169982510244328 0.0
0.002746898386496658 0.00014499253936373332 0.0
0.002790191425485549 0.00012349921639020242 0.0
0.0019277574287528709 8.556848642490368e-5 0.0
0.001815726328424151 6.742677831506504e-5 0.0
0.00190251144373524 5.8501341640201034e-5 0.0
0.001811532686673143 4.544551028388809e-5 0.0
0.0018876308452003688 3.783374645797355e-5 0.0
0.001809188775221291 2.7745787598018616e-5 0.0
0.0018779795038900526 2.0306317438548194e-5 0.0
0.0018068900919817115 1.14617075696642e-5 0.0
0.0018709072894388488 4.387506901226784e-6 0.0
0.001804896229258128 -3.7032009056428258e-6 0.0
0.0018655002928240785 -1.0387537864456445e-5 0.0
0.0018032720728848697 -1.7999517828999313e-5 0.0
0.0018612633234981052 -2.4802225202399352e-5 0.0
0.001803491539495496 -3.1952146009442596e-5 0.0
0.0018578997855081155 -3.871834754553799e-5 0.0
0.0018022614467207508 -4.5680789141337044e-5 0.0
0.0018548151696124704 -5.234022045590516e-5 0.0
0.0017993089959321058 -5.9197572480046105e-5 0.0
0.0018517641579528605 -6.584170565230567e-5 0.0
0.0017977028577730674 -7.255678369033008e-5 0.0
0.00184916405967533 -7.93069248169653e-5 0.0
0.0017963347848192186 -8.592671908189653e-5 0.0
0.0018451023211673277 -9.270745383921863e-5 0.0
0.0017946694714154059 -9.938744476964795e-5 0.0
0.0018425521658975775 -0.00010623237544549886 0.0
0.0017939618084165583 -0.00011262975707421264 0.0
0.0018403124119737515 -0.00011986431843567838 0.0
0.0017900494132862515 -0.00012547012606611545 0.0
0.0018375537390243931 -0.0001336029837851259 0.0
0.0017767809734508763 -0.00013943015544132652 0.0
0.0018380401092999783 -0.00014780536002185677 0.0
0.0017867107684834268 -0.00015452695266744937 0.0
0.0018355037666400553 -0.00016208863417992722 0.0
0.0017869193093394704 -0.00016918067867477185 0.0
0.00183376435684558 -0.00017679027679850203 0.0
0.0017884749605033721 -0.00018399450516393668 0.0
0.001831822704204462 -0.00019174598764559885 0.0
0.0017877114982524508 -0.00019935381115161608 0.0
0.001744750198826259 4.905795592042799e-6 0.0
0.0018298436293517674 -0.00020712652035392834 0.0
0.0017450752457807892 -6.507203867138885e-5 0.0
0.001731033215786576 -0.0001506846191290059 0.0
0.0017833637468651368 -0.00021488690069923456 0.0
0.0018275151582151357 -0.0002229068478473073 0.0
0.0017790744773602699 -0.0002313964965847269 0.0
0.0017356774026466891 -0.00022184817581565543 0.0
0.0017302016503978066 -0.0002391563669261107 0.0
0.0018233658303564203 -0.00024007314840778686 0.0
0.0018724234194793202 -0.00023097151592089084 0.0
0.0018822010303237498 -0.0001544443790964561 0.0
0.0018685549790067675 -0.0002486420349137208 0.0
0.0019206139338134116 -0.0002378267839631745 0.0
0.0019150282093486873 -0.0002571414466874219 0.0
0.0016872746768074717 -0.00022914240957309364 0.0
0.001683548744557426 -0.0002461099793008356 0.0
0.0019686907607633524 -0.00024535968240536855 0.0
0.0016378866918875937 -0.00023553456627486632 0.0
0.0016369580388650427 -0.00025332810655050826 0.0
0.001963978950032703 -0.0002649158127382261 0.0
0.0020159344762709737 -0.0002540240421251185 0.0
0.0015881533354428644 -0.00024201757649270776 0.0
0.0015860567692154424 -0.00026033402380969226 0.0
0.0020123349102152245 -0.00027346941528047546 0.0
0.002065734474622936 -0.0002619090914227578 0.0
0.0015386230272437529 -0.0002484612884420901 0.0
0.0015360596157987158 -0.00026786266143108905 0.0
0.0020619773901963873 -0.0002823757694339206 0.0
0.002116794513196425 -0.0002696565948236177 0.0
0.0014894787579786024 -0.00025386395259721373 0.0
0.0014836439863005215 -0.00027384704632064347 0.0
0.0021136837861787257 -0.00029065759107214614 0.0
0.0021687863128373223 -0.00027719775947199806 0.0
0.0014354717555949427 -0.000259232206822603 0.0
0.001430921989593988 -0.0002803386052254125 0.0
0.0013799506022970647 -0.00026581926160447613 0.0
0.0013842732896370681 -0.00024347386173283165 0.0
0.0020537555320908215 -0.00030256262557465965 0.0
0.0021653872368328705 -0.0002990385480981593 0.0
0.002221575600704293 -0.00028458216643105743 0.0
0.002225881503122294 -0.00026215304501217204 0.0
0.0018946247690019749 -8.646703015547891e-5 0.0
0.0022807897112368464 -0.0002691028818121974 0.0
0.0022855627221606157 -0.00024581853832304665 0.0
0.0023422260279444256 -0.00025199486686852186 0.0
0.0013796939224670604 -0.00028860736727028403 0.0
0.0013264717353397152 -0.00027162999942954434 0.0
0.0014297143606334121 -0.00030300533075940984 0.0
0.0022165220018054857 -0.00030758337478831 0.0
0.0013268800851915735 -0.00029499801715201384 0.0
0.0012730542113319754 -0.0002767158642851708 0.0
0.0019166990813606927 -3.0498458656070655e-5 0.0
0.001273307656268384 -0.0002995797065141512 0.0
0.0012195736040431005 -0.00028098521673146153 0.0
0.0012200194546720905 -0.00030438905952515256 0.0
0.0011670188792937291 -0.00028407699351684477 0.0
0.0011654137401921867 -0.0002612545158760249 0.0
0.00110973616356941 -0.0002649536785794805 0.0
0.001108961530710215 -0.000240852275256487 0.0
0.001161176848458778 -0.00030716790207995664 0.0
0.0010491914403502832 -0.0002447873321234378 0.0
0.0010479802022914048 -0.00022010529471969972 0.0
0.001220932859935001 -0.0003291332642323983 0.0
0.0011709033345932043 -0.00033384818985860825 0.0
0.0009896270341994656 -0.0002221037984756113 0.0
0.0009864399048320808 -0.00019804151764811484 0.0
0.0023486093749871505 -0.00022840798183700785 0.0
0.0024075456595464705 -0.0002342281755871086 0.0
0.0012217530047052777 -0.0003541804728647353 0.0
0.0011723637060126434 -0.00035872015401059213 0.0
0.002414624534681371 -0.0002098986499197175 0.0
0.002476398834545428 -0.00021587018127129773 0.0
0.002466669389652885 -0.00024254242698617707 0.0
0.0025359625075053083 -0.0002226859221842821 0.0
0.0025272743448933517 -0.0002499660701394092 0.0
0.0025966199867540106 -0.00022796681386544804 0.0
0.002591301386758575 -0.0002549690134060911 0.0
0.0026629423804396843 -0.00023012462409196537 0.0
0.002651552996827676 -0.0002577064931040295 0.0
0.002668261777633752 -0.00020423739245447914 0.0
0.0027242285687953814 -0.00023322227585797193 0.0
0.002709002692085478 -0.0002606595311780851 0.0
0.0012231649587516526 -0.00037969130345662705 0.0
0.0009249840680882933 -0.00019940537906536424 0.0
0.0009206377275749354 -0.00017496416456939183 0.0
0.002642317956973397 -0.00028591736006374743 0.0
0.002697436288328107 -0.0002883710893091095 0.0
0.0027630348105332197 -0.00026268515131874553 0.0
0.0026354412921500876 -0.0003146219070732767 0.0
0.0011749488326397042 -0.00038437451687882163 0.0
0.0027514845348331073 -0.00028986774994871133 0.0
0.0028156369192315245 -0.00026348670460696203 0.0
0.0012244734850013887 -0.00040591507752156747 0.0