# vtk DataFile Version 2.0
phase field modeling fracture
ASCII
DATASET UNSTRUCTURED_GRID
POINTS 2538 float
0.0 0.0 0.0
10.0 0.0 0.0
0.0 10.0 0.0
10.0 10.0 0.0
0.0 4.9995 0.0
0.0 5.0005 0.0
5.0 5.0 0.0
0.9416964895726688 0.0 0.0
1.803581725054446 0.0 0.0
2.592419885431098 0.0 0.0
3.314401822861676 0.0 0.0
3.975193910351406 0.0 0.0
4.579982132660152 0.0 0.0
5.133512780936812 0.0 0.0
5.640130319506143 0.0 0.0
6.103810708661955 0.0 0.0
6.528192895506818 0.0 0.0
6.916607540127679 0.0 0.0
7.272102969376355 0.0 0.0
7.597469242948583 0.0 0.0
7.895259826292669 0.0 0.0
8.167811885738017 0.0 0.0
8.417264413845215 0.0 0.0
8.645575169389538 0.0 0.0
8.854535961159101 0.0 0.0
9.045786767735546 0.0 0.0
9.220828555767493 0.0 0.0
9.38103509633881 0.0 0.0
9.527663687265145 0.0 0.0
9.661865124984566 0.0 0.0
9.784692609918062 0.0 0.0
9.897110148790482 0.0 0.0
10.0 0.09999999999992584 0.0
10.0 0.199999999999856 0.0
10.0 0.2999999999997771 0.0
10.0 0.3999999999996677 0.0
10.0 0.4999999999995511 0.0
10.0 0.5999999999994683 0.0
10.0 0.6999999999993983 0.0
10.0 0.7999999999993286 0.0
10.0 0.8999999999992587 0.0
10.0 0.9999999999991888 0.0
10.0 1.099999999999119 0.0
10.0 1.199999999999033 0.0
10.0 1.299999999998852 0.0
10.0 1.399999999998576 0.0
10.0 1.499999999998284 0.0
10.0 1.599999999997992 0.0
10.0 1.6999999999977 0.0
10.0 1.799999999997408 0.0
10.0 1.899999999997116 0.0
10.0 1.999999999996825 0.0
10.0 2.099999999996533 0.0
10.0 2.199999999996241 0.0
10.0 2.299999999995949 0.0
10.0 2.399999999995657 0.0
10.0 2.499999999995365 0.0
10.0 2.599999999995073 0.0
10.0 2.699999999994782 0.0
10.0 2.79999999999449 0.0
10.0 2.899999999994198 0.0
10.0 2.999999999993906 0.0
10.0 3.099999999993614 0.0
10.0 3.199999999993322 0.0
10.0 3.299999999993029 0.0
10.0 3.399999999992738 0.0
10.0 3.499999999992446 0.0
10.0 3.599999999992154 0.0
10.0 3.699999999991863 0.0
10.0 3.799999999991571 0.0
10.0 3.899999999991278 0.0
10.0 3.999999999991022 0.0
10.0 4.099999999991035 0.0
10.0 4.199999999991187 0.0
10.0 4.299999999991338 0.0
10.0 4.399999999991491 0.0
10.0 4.499999999991642 0.0
10.0 4.599999999991795 0.0
10.0 4.699999999991947 0.0
10.0 4.799999999992099 0.0
10.0 4.89999999999225 0.0
10.0 4.999999999992403 0.0
10.0 5.099999999992555 0.0
10.0 5.199999999992706 0.0
10.0 5.299999999992858 0.0
10.0 5.39999999999301 0.0
10.0 5.499999999993161 0.0
10.0 5.599999999993313 0.0
10.0 5.699999999993466 0.0
10.0 5.799999999993618 0.0
10.0 5.899999999993771 0.0
10.0 5.999999999993922 0.0
10.0 6.099999999994074 0.0
10.0 6.199999999994227 0.0
10.0 6.299999999994378 0.0
10.0 6.39999999999453 0.0
10.0 6.499999999994682 0.0
10.0 6.599999999994833 0.0
10.0 6.699999999994986 0.0
10.0 6.799999999995138 0.0
10.0 6.899999999995289 0.0
10.0 6.999999999995442 0.0
10.0 7.099999999995594 0.0
10.0 7.199999999995747 0.0
10.0 7.299999999995897 0.0
10.0 7.39999999999605 0.0
10.0 7.499999999996202 0.0
10.0 7.599999999996353 0.0
10.0 7.699999999996505 0.0
10.0 7.799999999996658 0.0
10.0 7.899999999996808 0.0
10.0 7.999999999996962 0.0
10.0 8.099999999997113 0.0
10.0 8.199999999997265 0.0
10.0 8.299999999997418 0.0
10.0 8.399999999997569 0.0
10.0 8.499999999997721 0.0
10.0 8.599999999997873 0.0
10.0 8.699999999998024 0.0
10.0 8.799999999998176 0.0
10.0 8.899999999998329 0.0
10.0 8.99999999999848 0.0
10.0 9.099999999998634 0.0
10.0 9.199999999998786 0.0
10.0 9.299999999998937 0.0
10.0 9.399999999999089 0.0
10.0 9.499999999999241 0.0
10.0 9.599999999999392 0.0
10.0 9.699999999999545 0.0
10.0 9.799999999999697 0.0
10.0 9.899999999999848 0.0
9.897110148790565 10.0 0.0
9.784692609918244 10.0 0.0
9.66186512498486 10.0 0.0
9.527663687265571 10.0 0.0
9.381035096339392 10.0 0.0
9.220828555768257 10.0 0.0
9.045786767736512 10.0 0.0
8.854535961160305 10.0 0.0
8.645575169391027 10.0 0.0
8.417264413847017 10.0 0.0
8.167811885740178 10.0 0.0
7.895259826295246 10.0 0.0
7.597469242951631 10.0 0.0
7.272102969379938 10.0 0.0
6.916607540131873 10.0 0.0
6.528192895511704 10.0 0.0
6.103810708667616 10.0 0.0
5.640130319512691 10.0 0.0
5.13351278094435 10.0 0.0
4.579982132668816 10.0 0.0
3.975193910361222 10.0 0.0
3.314401822869852 10.0 0.0
2.592419885437257 10.0 0.0
1.803581725058137 10.0 0.0
0.9416964895740705 10.0 0.0
0.0 9.00010000000243 0.0
0.0 8.000200000005481 0.0
0.0 7.000300000005135 0.0
0.0 6.000400000002569 0.0
0.901790731451151 5.000409820926855 0.0
1.657200899774397 5.000334279910023 0.0
2.289991063707192 5.000271000893629 0.0
2.820065163538221 5.000217993483646 0.0
3.264096435579811 5.000173590356442 0.0
3.636051481595835 5.00013639485184 0.0
3.947629914072366 5.000105237008593 0.0
4.208632181002628 5.0000791367819 0.0
4.427267949625672 5.000057273205037 0.0
4.610414277633563 5.000038958572237 0.0
4.763831845154243 5.000023616815485 0.0
4.892346298799659 5.00001076537012 0.0
4.892346298799748 4.99998923462988 0.0
4.763831845154455 4.999976383184515 0.0
4.610414277633943 4.999961041427763 0.0
4.427267949626277 4.999942726794963 0.0
4.208632181003523 4.9999208632181 0.0
3.94762991407365 4.999894762991407 0.0
3.636051481597624 4.99986360514816 0.0
3.264096435582253 4.999826409643559 0.0
2.820065163541503 4.999782006516354 0.0
2.289991063711534 4.999728999106371 0.0
1.657200899778495 4.999665720089978 0.0
0.9017907314530094 4.999590179073145 0.0
0.0 3.999600000002013 0.0
0.0 2.999700000005187 0.0
0.0 1.99980000000512 0.0
0.0 0.9999000000025537 0.0
9.897889398521345 2.93573355845387 0.0
9.906568249974548 7.060009441434234 0.0
9.913122631074113 3.64016132281653 0.0
9.922462129543863 6.354535290629151 0.0
9.917693659967533 4.354211663134567 0.0
9.909873057440208 5.637584487339942 0.0
9.914183254994697 4.950672966925282 0.0
9.913885043715895 7.666887930262611 0.0
9.91009668007573 2.351889069770817 0.0
9.905135696074536 8.138152454502785 0.0
9.913397459621809 1.849999999997262 0.0
7.099302372137626 0.297750452375005 0.0
7.095143729410097 9.700359990366296 0.0
4.942912558701401 5.095838627899509 0.0
4.315009232304429 5.165022115481685 0.0
4.946182472483878 4.906763777264103 0.0
4.317967462990024 4.825955043772673 0.0
9.916390871492647 8.64999999999792 0.0
9.921504649680616 1.368376469890358 0.0
8.292538149791614 0.206877570318844 0.0
8.292538149793597 9.793122429681448 0.0
5.884594439766573 9.587645267048616 0.0
5.794826292691579 0.3794853783929359 0.0
9.913397459621425 9.049999999998557 0.0
9.908526577714177 0.9568239351922434 0.0
3.456851160380649 5.315740054130451 0.0
3.457889657868442 4.707121019609468 0.0
8.945214200703926 0.1503383337970344 0.0
8.950161364448409 9.8413906539257 0.0
9.913862335499305 4.055887885208452 0.0
9.916697353372683 4.650158482607802 0.0
9.919076340414442 6.049999999994006 0.0
9.906994308667635 5.25749687748192 0.0
9.917490342358025 6.655979201891897 0.0
9.915757520293784 7.343848891656911 0.0
9.910049507471042 3.363474386285078 0.0
9.914471988502868 2.647400064832979 0.0
9.91474124160965 9.337490423485129 0.0
9.916971008170838 0.6499999999994355 0.0
4.307157269264427 9.509674045029644 0.0
4.331527375865619 0.4401616696422582 0.0
9.45434939180249 9.878397030523757 0.0
9.457696120412969 0.1270877537061785 0.0
2.555070293622606 5.422044496190925 0.0
2.566232917480916 4.608001224030952 0.0
3.026511860837692 9.332320638257093 0.0
2.945561971800619 0.5895662714727601 0.0
7.7395404387124 0.2511088946967771 0.0
7.736379255744154 9.745848826372828 0.0
4.687135269408529 5.122111433928926 0.0
4.688420821504113 4.871895064967488 0.0
9.910554884115975 0.3448356354522978 0.0
9.911230082250466 9.65764729394159 0.0
9.921953841410854 6.851023993342036 0.0
9.912065178606017 5.448170483544033 0.0
9.911660025326261 3.861846960030188 0.0
9.914847467973438 3.14501593945607 0.0
9.913397459621425 5.849999999993703 0.0
9.913397459621425 7.849999999996735 0.0
9.906916878988277 2.15455769998631 0.0
9.913397459621425 8.349999999997479 0.0
9.909472363117661 1.640528221515488 0.0
9.913987325695956 1.152857110636247 0.0
9.913397459621425 8.849999999998241 0.0
0.9100099990995943 2.614215977520411 0.0
0.8395284981715456 7.451196254860987 0.0
9.723278867451556 9.898135916635193 0.0
9.723316350887044 0.09841820909386662 0.0
1.385819164827588 4.454539963646463 0.0
1.338343629665047 5.523111536005823 0.0
1.377179700550677 0.6809168304959698 0.0
1.418060461092743 9.285896715136046 0.0
9.91268220142518 0.1457914080939694 0.0
9.906737126737994 9.845745933882352 0.0
0.7108351382691361 6.537941170074089 0.0
1.527735020267026 6.915620208855231 0.0
1.630993885659103 7.838271825205868 0.0
2.232760943566823 7.370850737296832 0.0
2.243414218068206 6.688299277952821 0.0
2.779655053105118 7.021588754814074 0.0
2.80227799359795 7.632420170547022 0.0
3.282022065908813 7.305859666021318 0.0
3.327597298795347 7.857554136825748 0.0
3.743210251018715 7.549183328204379 0.0
3.716353232200752 7.062036086888612 0.0
4.111978858674101 7.27497101169417 0.0
4.104192177581432 6.879858986267289 0.0
4.436230765617037 7.045693351607117 0.0
4.430360014817357 6.703971783962796 0.0
4.732390145036301 6.849841042423394 0.0
5.056161327708878 5.095276573498806 0.0
5.111586796021131 4.999081142133581 0.0
5.169267363407189 5.09444870412406 0.0
5.223795108752053 4.996986220359468 0.0
5.281480803887719 5.092780870372803 0.0
5.335670761900611 4.994887492556936 0.0
5.393485214772442 5.090486192743301 0.0
5.447323082877892 4.992601527033996 0.0
5.505243219343024 5.087953380710069 0.0
5.558739102026105 4.990287787962959 0.0
5.616491581184779 5.085335255235766 0.0
5.669852346908056 4.9879269227514 0.0
5.727502713908907 5.082679981817038 0.0
5.780766004135139 4.988313988715834 0.0
5.838244881129535 5.080480568766611 0.0
5.891357695677371 4.986433849408193 0.0
5.948696036767613 5.077969900389505 0.0
6.001601341641615 4.981313698556656 0.0
6.058851024265095 5.074871552128682 0.0
6.111614020704875 4.978360695880202 0.0
6.168801161530775 5.072044953270978 0.0
6.221368818778567 4.975825765213497 0.0
6.278268309066882 5.066182320461055 0.0
6.330814273567539 4.972837984645718 0.0
6.387565032421376 5.062889771971895 0.0
6.437476667631405 4.971693683589553 0.0
[...]
POINT_DATA 2538
VECTORS disp float
1.9304853925330427e-11 5.0077746469297445e-11 0.0
4.0951023843585356e-11 -1.1205638145385645e-10 0.0
0.004599999983562314 4.409156227967343e-11 0.0
0.00459999995822564 -1.154977817024858e-10 0.0
0.0014536225811411898 0.0006078020861392099 0.0
0.0033135027589544807 0.00040684441655758027 0.0
0.0022657914950111944 0.00014628226050056997 0.0
5.526375828345874e-12 5.525392704609216e-12 0.0
9.892742234212199e-12 1.234752635740518e-11 0.0
9.184104547516303e-12 7.826269098085909e-12 0.0
9.114643225276777e-12 7.284858279028861e-12 0.0
8.655848753050844e-12 5.523566630066543e-12 0.0
8.169906643265671e-12 4.059752369260732e-12 0.0
7.725013618930595e-12 2.463412531760625e-12 0.0
7.364854657107513e-12 7.680721941413964e-13 0.0
6.5288397336239966e-12 -1.1030342987323112e-12 0.0
6.838527534061604e-12 -2.7521569806524294e-12 0.0
6.5255347053559555e-12 -4.627180355573061e-12 0.0
6.472010589533282e-12 -6.617945332070563e-12 0.0
6.600606340585572e-12 -8.599800732091216e-12 0.0
6.493325436751143e-12 -1.0495212365746139e-11 0.0
6.800681326950474e-12 -1.275614346317362e-11 0.0
6.768992158395277e-12 -1.4698469909169753e-11 0.0
7.112982401684687e-12 -1.694670230145977e-11 0.0
7.199116074410977e-12 -1.9520572830233835e-11 0.0
7.480967875236668e-12 -2.1929995010764495e-11 0.0
7.776042222381542e-12 -2.4789647585040373e-11 0.0
8.166797396532857e-12 -2.7970714357090103e-11 0.0
8.91568530283631e-12 -3.175462219988302e-11 0.0
8.909608373909584e-12 -3.5769718878459744e-11 0.0
1.2000408448572275e-11 -4.469281741842952e-11 0.0
5.06929945054818e-12 -4.111991443289677e-11 0.0
5.6572868540527984e-5 -7.710001442361145e-5 0.0
9.756272675151734e-5 -0.00013339022499664536 0.0
0.00013731465708610895 -0.00018258282066905187 0.0
0.00017542053387849753 -0.00022738524190602544 0.0
0.00021239672174865035 -0.0002690904413705558 0.0
0.0002490139395660703 -0.00030869548975418295 0.0
0.0002858690036266391 -0.00034637474154674115 0.0
0.00032260952950681205 -0.0003824131476135542 0.0
0.00035955047950174033 -0.00041711789229192925 0.0
0.00039677304744924603 -0.00045050103059377373 0.0
0.00043430074297600785 -0.00048283201296608403 0.0
0.00047239910295134686 -0.0005141331155015167 0.0
0.0005107773655155208 -0.0005443996581981906 0.0
0.0005496330196856887 -0.0005738501930201426 0.0
0.0005891860880828421 -0.0006024502919285558 0.0
0.0006290043264528764 -0.0006301536976765023 0.0
0.0006693605928093086 -0.000657116575017679 0.0
0.0007102370756852983 -0.0006832211569515059 0.0
0.0007516061614717541 -0.0007086054287659221 0.0
0.0007934866927417598 -0.000733268496454747 0.0
0.0008359287481891168 -0.0007572141989169309 0.0
0.0008788240048120146 -0.000780420011139763 0.0
0.000922422112445375 -0.0008030050752144703 0.0
0.0009663232358186254 -0.000824822026185024 0.0
0.0010109741324691214 -0.0008459979931074371 0.0
0.001055891907064208 -0.0008664149204894128 0.0
0.0011013893078395713 -0.0008861987009498172 0.0
0.0011473009055612744 -0.0009052105018376133 0.0
0.0011938697902057647 -0.000923619970349718 0.0
0.0012406767974754093 -0.0009412946321894037 0.0
0.0012881267192601025 -0.0009583347258257807 0.0
0.0013359529568089425 -0.0009746123427623786 0.0
0.0013842622699042793 -0.0009902186535698195 0.0
0.0014329021200434463 -0.0010050903448840414 0.0
0.0014821386512949163 -0.0010193083472336615 0.0
0.0015315683171593622 -0.0010327415037003997 0.0
0.0015814457613234478 -0.0010454735995624547 0.0
0.0016316359686940308 -0.0010574158010264595 0.0
0.0016821958981558642 -0.0010686008027753267 0.0
0.0017330420810138581 -0.0010790958250697493 0.0
0.0017841432941634533 -0.0010887509504348455 0.0
0.0018355662553204038 -0.0010977201089492697 0.0
0.0018872439851022815 -0.0011058641067950164 0.0
0.0019390698210909915 -0.0011132985677430912 0.0
0.0019911373147626314 -0.0011198465776048382 0.0
0.0020432057447087415 -0.0011256659611965862 0.0
0.0020954800254992653 -0.0011307100721583015 0.0
0.0021477764425993757 -0.0011348825758728958 0.0
0.0022000946987309404 -0.001138332601074336 0.0
0.0022525544292866166 -0.0011409056138044884 0.0
0.0023045189452132707 -0.0011424755633192413 0.0
0.0023569651803521867 -0.0011433780767589774 0.0
0.002407899737588804 -0.0011431393683851748 0.0
0.0024596255778814523 -0.001141962714732632 0.0
0.002509077127965107 -0.0011395743154242657 0.0
0.002560218440492505 -0.0011363488622339413 0.0
0.002609789056829738 -0.0011318561761314559 0.0
0.002659480357083641 -0.001125549473005268 0.0
0.0027094292853256704 -0.0011180813251249534 0.0
0.0027598288086833718 -0.0011089428552398138 0.0
0.002810329607461887 -0.0010988453878048733 0.0
0.0028611060762487065 -0.0010875133171875074 0.0
0.002911988038790761 -0.0010753569811868873 0.0
0.0029628658063275476 -0.001062102962084319 0.0
0.003013772183082837 -0.0010479867360468373 0.0
0.003064516031824967 -0.0010332728886177016 0.0
0.003114837477425358 -0.001017712118319559 0.0
0.003164874503593751 -0.0010015358106294555 0.0
0.0032146872898399016 -0.000984587500276924 0.0
0.0032641937642777993 -0.0009668644139471445 0.0
0.003313158389843709 -0.0009485452546189578 0.0
0.003362004455103214 -0.0009294458646058211 0.0
0.0034102005961640525 -0.0009096504853301741 0.0
0.0034579794318630847 -0.000889274485336844 0.0
0.0035055057661176 -0.0008680677659233657 0.0
0.003552348111813462 -0.0008462875815531959 0.0
0.003598872649655688 -0.0008238165518099775 0.0
0.003644884478877014 -0.0008006498831667442 0.0
0.003690531033967298 -0.0007767961330488922 0.0
0.0037357121842835255 -0.0007521500107663898 0.0
0.003780483730276142 -0.0007267543025954771 0.0
0.003824598041178991 -0.0007007155045928642 0.0
0.0038683816001661812 -0.0006739429608935638 0.0
0.003911789066565257 -0.0006463576808503998 0.0
0.003954653559542408 -0.0006179793664158581 0.0
0.003997163857379378 -0.0005888397004654501 0.0
0.004039428277591174 -0.0005587374976596751 0.0
0.004081159919577128 -0.0005277065410134083 0.0
0.0041224667429353695 -0.0004957981396897987 0.0
0.0041636884934333936 -0.00046283101354644833 0.0
0.004204784799399963 -0.00042864434871965173 0.0
0.004245520938090277 -0.0003931613255418742 0.0
0.00428600060676908 -0.00035632057578512284 0.0
0.004326582032743412 -0.0003178492518308296 0.0
0.0043677536168518225 -0.0002773278776434634 0.0
0.004408960331607111 -0.00023448939450767192 0.0
0.0044506991622515445 -0.00018837158916361143 0.0
0.004494990127979754 -0.00013753759257970822 0.0
0.004540470535983339 -7.938342696497242e-5 0.0
0.0045999999943651575 -3.906083947385135e-11 0.0
0.004599999987256268 -4.323360701332209e-11 0.0
0.004599999990740132 -3.1600213804503734e-11 0.0
0.004599999990668119 -2.8300961389221175e-11 0.0
0.004599999991220303 -2.441759450695555e-11 0.0
0.004599999991649629 -2.1350511663825053e-11 0.0
0.004599999991807785 -1.889979359447755e-11 0.0
0.004599999992106861 -1.668514428597106e-11 0.0
0.004599999992186632 -1.4601561072605842e-11 0.0
0.004599999992327983 -1.2566032742621962e-11 0.0
0.004599999992680513 -1.091737785110325e-11 0.0
0.0045999999925746896 -8.75111888431736e-12 0.0
0.004599999992738151 -7.134461195761977e-12 0.0
0.004599999992808033 -5.260076886747905e-12 0.0
0.004599999992805419 -3.4715912019298754e-12 0.0
0.004599999992729925 -1.6067018641345378e-12 0.0
0.004599999992715931 2.0119277787180088e-13 0.0
0.004599999992035602 2.2058228825968567e-12 0.0
0.00459999999245427 3.798820484974472e-12 0.0
0.004599999991384037 5.79344262656245e-12 0.0
0.004599999991363888 7.0955649316517314e-12 0.0
0.004599999990962167 8.5147947465488e-12 0.0
0.004599999991307824 8.946525797636903e-12 0.0
0.004599999991035281 1.2619394180950362e-11 0.0
0.004599999995178127 6.0952613184192855e-12 0.0
0.004263728703565045 0.00026128436451425756 0.0
0.003967108218378967 0.0003805262402214501 0.0
0.003694618220318996 0.00042789017274079205 0.0
0.0034632913480736427 0.00042630450076179007 0.0
0.0033047315105618267 0.00026653609441558125 0.0
0.0032805090076609583 0.00019222356486440047 0.0
0.003231685268226691 0.00015787331274991868 0.0
0.0031733379007806307 0.00014337144123575233 0.0
0.00310450586533066 0.00014194019365048647 0.0
0.003029068635525346 0.00014520998283620374 0.0
0.002948326014898191 0.00015009043906800997 0.0
0.0028637475965810465 0.00015722403430603428 0.0
0.002773756193951838 0.00016311279325137478 0.0
0.0026775960260520698 0.00016684944436152167 0.0
0.002570762870307138 0.0001682764324218316 0.0
0.002442080933766027 0.0001687966202251904 0.0
0.0020948294935279584 0.00018838368079086395 0.0
0.0019747144448466346 0.0002002048586034797 0.0
0.0018757660560775441 0.0002037384621834524 0.0
0.0017896491383281616 0.00020560460457181605 0.0
0.0017117551226831416 0.00020745864354785096 0.0
0.0016414257351895177 0.00021030600846802305 0.0
0.0015785053236042378 0.0002156930836774995 0.0
0.0015251209705601431 0.0002257505673802324 0.0
0.0014836152741399822 0.0002465256188087262 0.0
0.0014557656624439171 0.0002836306461252244 0.0
0.0014455375747128745 0.00034680309230729247 0.0
0.0014472020716322237 0.0004496628835721181 0.0
0.0012747725514297436 0.00061556593380878 0.0
0.0010245032779490982 0.0005752413776463844 0.0
0.0007112587633846109 0.0004755950991408476 0.0
0.00037540575397421795 0.00031207849736063274 0.0
0.0012038605821288611 -0.0008844071357685225 0.0
0.003302085914413335 -0.0009070223082448266 0.0
0.0015469426557948433 -0.0009968815121710298 0.0
0.0029457534330537007 -0.0010246556444971958 0.0
0.0019122722019259783 -0.0010699451792840606 0.0
0.0025818640116118483 -0.0010858829044068496 0.0
0.00222544869607775 -0.0010974387440457545 0.0
0.0035921555120308527 -0.0007891780693971272 0.0
0.0009383522056773672 -0.0007764696882765366 0.0
0.0038076245656120064 -0.0006731436546986244 0.0
0.000723575645793928 -0.0006615783584921039 0.0
7.486082823829985e-5 -1.468321126855899e-5 0.0
0.004523933353231034 -1.4340148927438398e-5 0.0
0.0024718683494623548 0.00018755345392760256 0.0
0.0028321159541655023 0.0001823976196628138 0.0
0.0020618070925139437 0.00019723620750185648 0.0
0.0017299312813159502 0.000224951298246116 0.0
0.004028149784289074 -0.0005374910500378585 0.0
0.0005298593554407733 -0.0005352204287314101 0.0
5.098088123334228e-5 -2.6733578839930475e-5 0.0
0.004547527163154961 -2.4742555585592372e-5 0.0
0.004490548553534614 3.2058320291911617e-6 0.0
0.00010110047190376107 3.860776787016447e-6 0.0
0.004195192295111458 -0.0004099046008124064 0.0
0.00037109309678428005 -0.0004038342795537582 0.0
0.003080657617261629 0.0001711301316980636 0.0
0.001520731263411211 0.00023523833844479563 0.0
3.7731696079397764e-5 -2.9290822176803712e-5 0.0
0.004558553595362935 -2.8182460084189753e-5 0.0
0.001757871511981766 -0.0010430811220475248 0.0
0.0020671460209411843 -0.0010875792078765235 0.0
0.0027902228513181884 -0.001057938813698893 0.0
0.002386815938373763 -0.0010969304349363672 0.0
0.0030996167268891243 -0.0009796319118216628 0.0
0.003439154759698632 -0.0008580357750086415 0.0
0.0014098953115440087 -0.0009580224112584212 0.0
0.001071360295455043 -0.0008386551321080878 0.0
0.004312755934592617 -0.0003078378673827373 0.0
0.0002577790777756678 -0.0002990607127983408 0.0
0.0044604860668904485 2.8835229591253464e-5 0.0
0.00012586498124559167 2.4351246360670794e-5 0.0
0.004565355674313481 -3.131605732969528e-5 0.0
3.481576726808314e-5 -3.5722391190520143e-5 0.0
0.003226951941542104 0.00017585275723488235 0.0
0.0014114370516601514 0.0002732440507555502 0.0
0.0044049427477647445 5.3723828698255966e-5 0.0
0.00017395093630141295 4.7930617090907694e-5 0.0
6.223898157365125e-5 -2.2229173233654323e-5 0.0
0.004535749031962086 -2.120239450355899e-5 0.0
0.002650712749123072 0.00019099372481102604 0.0
0.0018922359742692555 0.00022275692620889003 0.0
0.00014239642508897065 -0.00017280310172151177 0.0
0.004446769232574893 -0.0001742411897250952 0.0
0.003197107170209299 -0.0009511193022011979 0.0
0.0024854070572680777 -0.001095781471334214 0.0
0.0016587001419082433 -0.0010222220109775229 0.0
0.0013043887997664038 -0.0009269154647595008 0.0
0.0026888650728712363 -0.0010731372378839274 0.0
0.003676669041519676 -0.0007472813487010077 0.0
0.0008519484813213401 -0.000731605712297116 0.0
0.0038997955432096528 -0.0006211848647726152 0.0
0.0006372194468577065 -0.0006061372087942858 0.0
0.00044582190597282063 -0.00046819788986731726 0.0
0.0041123302540720455 -0.000475164110031655 0.0
0.0008567409435411128 0.0003347864773702726 0.0
0.003822821791490088 0.00028109702698605717 0.0
0.00456639038385312 -3.582549045565938e-5 0.0
3.0392717570423714e-5 -3.617854549114914e-5 0.0
0.001350740261249604 0.00037857909079642174 0.0
0.0033408906586403016 0.00023793535477360645 0.0
0.00019631116775327293 7.753380397703012e-5 0.0
0.0044001734212433955 7.449799495737163e-5 0.0
6.205679658495626e-5 -7.75251852035585e-5 0.0
0.0045313929879531225 -8.024571031286635e-5 0.0
0.0035740558556838753 0.00031916860035414025 0.0
0.003660919649064214 0.0002494645244495155 0.0
0.003943276722746726 0.00019632948120339234 0.0
0.0037839074771495807 0.00020369900910404277 0.0
0.003567443546351804 0.0002258014431823628 0.0
0.0036474680157535595 0.00021042070046372566 0.0
0.003854333201490327 0.00018059885422975233 0.0
0.0037253840678956127 0.00019297594082836334 0.0
0.003920516493846093 0.0001592653979268657 0.0
0.003801120725464432 0.00017051485066411098 0.0
0.0036181226902121592 0.00019859991909462928 0.0
0.003687394262987136 0.0001752777494897201 0.0
0.003529530624276347 0.00019730432148570758 0.0
0.0035853598441133614 0.00017249315684165405 0.0
0.003441191281059739 0.0001909905618539914 0.0
0.0034914592678892435 0.00016189093626100716 0.0
0.002411909452972023 0.0001263414718965141 0.0
0.002262183012254947 0.00010154823069174882 0.0
0.002379874498746464 9.008233444624173e-5 0.0
0.002258653731478238 7.220132371732163e-5 0.0
0.0023611378953167336 6.230481792513866e-5 0.0
0.0022570072303063566 4.8615445146950755e-5 0.0
0.002349053749023273 3.876221083438215e-5 0.0
0.002255112336540563 2.69098953215019e-5 0.0
0.002340260446790591 1.74878936533801e-5 0.0
0.0022534390298459186 6.812974184926455e-6 0.0
0.0023335919325016066 -2.1027745276859485e-6 0.0
0.002252161930006061 -1.1979397980065322e-5 0.0
0.0023284599327527177 -2.1045274428446407e-5 0.0
0.00225322636374483 -3.0206848521381893e-5 0.0
0.0023244589462749965 -3.920299419730849e-5 0.0
0.0022523136634186413 -4.804304532441351e-5 0.0
0.0023208349305060493 -5.6880082397517185e-5 0.0
0.0022491506830122007 -6.550472429608666e-5 0.0
0.002317281837314732 -7.429053114134e-5 0.0
0.0022477190685840395 -8.267389118921162e-5 0.0
0.002314333683880738 -9.156963090700854e-5 0.0
0.002246590865025347 -9.979438652818096e-5 0.0
0.0023095338945231195 -0.00010870021937464253 0.0
0.002245088656992207 -0.00011698364589343138 0.0
0.002306724774621329 -0.00012596201042707776 0.0
0.002244818648471462 -0.0001338711940540458 0.0
0.002304336920033482 -0.00014332685454448356 0.0
0.002240427698958683 -0.00015020698528166082 0.0
0.002301326922822344 -0.00016080235732114263 0.0
0.0022242013428439237 -0.00016790106726263088 0.0
0.002302491926353147 -0.00017886265067798462 0.0
0.0022375623313353734 -0.00018714516240514808 0.0
0.0022998240233784903 -0.0001970059428442746 0.0
0.0022385143653265265 -0.0002057974698489257 0.0
0.002298201900581109 -0.0002156994216047217 0.0
0.0022411814933844237 -0.0002246660030417394 0.0
0.0022963464986621132 -0.00023472377187921305 0.0
0.0022409195895997536 -0.0002442329880296081 0.0
0.002173340826159915 1.812676753993396e-5 0.0
0.0022944737537548268 -0.00025431068144411495 0.0
0.002179266734748361 -7.280998244317757e-5 0.0
0.002166588564437304 -0.00018196933000042036 0.0
0.0022361393905730546 -0.0002640406873302943 0.0
0.0022921866896813982 -0.0002744426940200542 0.0
0.002231475850673639 -0.0002851352750991563 0.0
0.0021762745368467283 -0.0002727784296016149 0.0
0.00217020661613611 -0.00029493586487794305 0.0
0.0022876654734569303 -0.0002963797133731804 0.0
0.0023490756225157485 -0.0002849047641040389 0.0
0.0023587586818390968 -0.00018750914955973776 0.0
0.002344876202843848 -0.00030749467559215845 0.0
0.002409930224998447 -0.00029384124542619926 0.0
0.002403588223528704 -0.0003185293506836102 0.0
0.002115552414816888 -0.0002819787051996604 0.0
0.0021117126142896855 -0.00030376222642282684 0.0
0.0024705435214185207 -0.0003036482018458672 0.0
0.002053564039833508 -0.0002900772452790139 0.0
0.0020533146425202394 -0.00031299266425284267 0.0
0.0024652712883910573 -0.0003286541318688401 0.0
0.0025300208010971283 -0.0003149123866350143 0.0
0.0019911665907784313 -0.00029835995236969964 0.0
0.0019894749145071716 -0.0003220259880379867 0.0
0.002526119113990294 -0.00033979966763742994 0.0
0.002592551049747134 -0.00032521943625759083 0.0
0.0019290334433770063 -0.00030667899058447535 0.0
0.001926793229699889 -0.0003318340285733585 0.0
0.002588479190906441 -0.0003514383313746096 0.0
0.0026565329509451027 -0.0003353974998272893 0.0
0.001867339529702214 -0.0003137383091790925 0.0
0.0018609688731174247 -0.00033974755413988865 0.0
0.002653295637079991 -0.00036233561658452777 0.0
0.0027215631414805796 -0.0003453731862831947 0.0
0.001799506461601177 -0.00032086347930484533 0.0
0.001794741206065729 -0.00034846026446082133 0.0
0.0017297963223017062 -0.00032973380156961865 0.0
0.0017341371506328501 -0.00030050702465809896 0.0
0.0025788704916937504 -0.0003773508960001621 0.0
0.0027180170154614248 -0.0003734164822673261 0.0
0.0027874909961890866 -0.0003552090730862552 0.0
0.0027921766544832943 -0.00032647368566298725 0.0
0.0023728995476092014 -0.00010094443628440245 0.0
0.002860589081142313 -0.00033580481523760977 0.0
0.0028658644424791563 -0.00030603797437165486 0.0
0.0029362740942342723 -0.0003144443773033055 0.0
0.0017304245652193261 -0.00035964673405142563 0.0
0.0016625865970117185 -0.0003377403529829053 0.0
0.0017941013914228665 -0.00037818847788382594 0.0
0.0027819678488895396 -0.00038477120811512903 0.0
0.0016639690034064058 -0.0003685397212596473 0.0
0.0015953830133317855 -0.00034494727909249213 0.0
0.0024006763320516275 -2.871259987771413e-5 0.0
0.0015964304351458968 -0.0003752124798887311 0.0
0.0015280173162224324 -0.00035123573698634606 0.0
0.001529193472978219 -0.00038234541878990545 0.0
0.0014617244742256568 -0.0003561014387128298 0.0
0.0014590462614066002 -0.00032577838909823777 0.0
0.001388909029442689 -0.00033152952434647315 0.0
0.0013872003146016495 -0.0002994994938000938 0.0
0.0014548159116925497 -0.00038703024333499653 0.0
0.001312008166157098 -0.0003056717728105807 0.0
0.0013097003154113433 -0.0002728795784155985 0.0
0.0015308040381139638 -0.0004153523953976081 0.0
0.0014674901864733614 -0.0004225861682775333 0.0
0.001236347694300511 -0.00027649293035257377 0.0
0.0012315626741673583 -0.00024461907105181884 0.0
0.002943567627124075 -0.00028436238206756305 0.0
0.0030166035413196775 -0.00029239917577569884 0.0
0.0015321325489414065 -0.00044886373387433546 0.0
0.0014695020885096487 -0.00045595667418925324 0.0
0.0030247438964126567 -0.00026144393777107497 0.0
0.0031011006844152687 -0.00026978207351947424 0.0
0.003089898988222438 -0.00030373732574500583 0.0
0.0031747282238315873 -0.00027929425027756844 0.0
0.003165022729327784 -0.0003141319592260173 0.0
0.003249747242754128 -0.0002870236552720947 0.0
0.0032444273983921103 -0.0003216949638840702 0.0
0.003331745309953496 -0.00029106466007979123 0.0
0.00331920137014278 -0.00032649595674349963 0.0
0.003337078156997874 -0.0002578629691533829 0.0
0.0034077640215560523 -0.0002964715707330867 0.0
0.0033907666523237253 -0.0003317936955814707 0.0
0.001534054183031633 -0.0004830656484627149 0.0
0.0011544189243429203 -0.0002474770878090015 0.0
0.0011481913011109684 -0.00021521346984433592 0.0
0.003309608258760373 -0.0003629464089252084 0.0
0.0033786384762070306 -0.0003677818065579242 0.0
0.0034584327396305617 -0.00033617688068766856 0.0
0.0033033063479276288 -0.0004003671474667137 0.0
0.0014727959599824044 -0.0004904180499195516 0.0
0.0034467255685988823 -0.00037175400775439984 0.0
0.003524601773178155 -0.00033929352143541124 0.0
0.0015356971428397003 -0.0005182934897229304 0.0
0.0014755047493870362 -0.0005259210880613926 0.0