# vtk DataFile Version 2.0
phase field modeling fracture
ASCII
DATASET UNSTRUCTURED_GRID
POINTS 2538 float
0.0 0.0 0.0
10.0 0.0 0.0
0.0 10.0 0.0
10.0 10.0 0.0
0.0 4.9995 0.0
0.0 5.0005 0.0
5.0 5.0 0.0
0.9416964895726688 0.0 0.0
1.803581725054446 0.0 0.0
2.592419885431098 0.0 0.0
3.314401822861676 0.0 0.0
3.975193910351406 0.0 0.0
4.579982132660152 0.0 0.0
5.133512780936812 0.0 0.0
5.640130319506143 0.0 0.0
6.103810708661955 0.0 0.0
6.528192895506818 0.0 0.0
6.916607540127679 0.0 0.0
7.272102969376355 0.0 0.0
7.597469242948583 0.0 0.0
7.895259826292669 0.0 0.0
8.167811885738017 0.0 0.0
8.417264413845215 0.0 0.0
8.645575169389538 0.0 0.0
8.854535961159101 0.0 0.0
9.045786767735546 0.0 0.0
9.220828555767493 0.0 0.0
9.38103509633881 0.0 0.0
9.527663687265145 0.0 0.0
9.661865124984566 0.0 0.0
9.784692609918062 0.0 0.0
9.897110148790482 0.0 0.0
10.0 0.09999999999992584 0.0
10.0 0.199999999999856 0.0
10.0 0.2999999999997771 0.0
10.0 0.3999999999996677 0.0
10.0 0.4999999999995511 0.0
10.0 0.5999999999994683 0.0
10.0 0.6999999999993983 0.0
10.0 0.7999999999993286 0.0
10.0 0.8999999999992587 0.0
10.0 0.9999999999991888 0.0
10.0 1.099999999999119 0.0
10.0 1.199999999999033 0.0
10.0 1.299999999998852 0.0
10.0 1.399999999998576 0.0
10.0 1.499999999998284 0.0
10.0 1.599999999997992 0.0
10.0 1.6999999999977 0.0
10.0 1.799999999997408 0.0
10.0 1.899999999997116 0.0
10.0 1.999999999996825 0.0
10.0 2.099999999996533 0.0
10.0 2.199999999996241 0.0
10.0 2.299999999995949 0.0
10.0 2.399999999995657 0.0
10.0 2.499999999995365 0.0
10.0 2.599999999995073 0.0
10.0 2.699999999994782 0.0
10.0 2.79999999999449 0.0
10.0 2.899999999994198 0.0
10.0 2.999999999993906 0.0
10.0 3.099999999993614 0.0
10.0 3.199999999993322 0.0
10.0 3.299999999993029 0.0
10.0 3.399999999992738 0.0
10.0 3.499999999992446 0.0
10.0 3.599999999992154 0.0
10.0 3.699999999991863 0.0
10.0 3.799999999991571 0.0
10.0 3.899999999991278 0.0
10.0 3.999999999991022 0.0
10.0 4.099999999991035 0.0
10.0 4.199999999991187 0.0
10.0 4.299999999991338 0.0
10.0 4.399999999991491 0.0
10.0 4.499999999991642 0.0
10.0 4.599999999991795 0.0
10.0 4.699999999991947 0.0
10.0 4.799999999992099 0.0
10.0 4.89999999999225 0.0
10.0 4.999999999992403 0.0
10.0 5.099999999992555 0.0
10.0 5.199999999992706 0.0
10.0 5.299999999992858 0.0
10.0 5.39999999999301 0.0
10.0 5.499999999993161 0.0
10.0 5.599999999993313 0.0
10.0 5.699999999993466 0.0
10.0 5.799999999993618 0.0
10.0 5.899999999993771 0.0
10.0 5.999999999993922 0.0
10.0 6.099999999994074 0.0
10.0 6.199999999994227 0.0
10.0 6.299999999994378 0.0
10.0 6.39999999999453 0.0
10.0 6.499999999994682 0.0
10.0 6.599999999994833 0.0
10.0 6.699999999994986 0.0
10.0 6.799999999995138 0.0
10.0 6.899999999995289 0.0
10.0 6.999999999995442 0.0
10.0 7.099999999995594 0.0
10.0 7.199999999995747 0.0
10.0 7.299999999995897 0.0
10.0 7.39999999999605 0.0
10.0 7.499999999996202 0.0
10.0 7.599999999996353 0.0
10.0 7.699999999996505 0.0
10.0 7.799999999996658 0.0
10.0 7.899999999996808 0.0
10.0 7.999999999996962 0.0
10.0 8.099999999997113 0.0
10.0 8.199999999997265 0.0
10.0 8.299999999997418 0.0
10.0 8.399999999997569 0.0
10.0 8.499999999997721 0.0
10.0 8.599999999997873 0.0
10.0 8.699999999998024 0.0
10.0 8.799999999998176 0.0
10.0 8.899999999998329 0.0
10.0 8.99999999999848 0.0
10.0 9.099999999998634 0.0
10.0 9.199999999998786 0.0
10.0 9.299999999998937 0.0
10.0 9.399999999999089 0.0
10.0 9.499999999999241 0.0
10.0 9.599999999999392 0.0
10.0 9.699999999999545 0.0
10.0 9.799999999999697 0.0
10.0 9.899999999999848 0.0
9.897110148790565 10.0 0.0
9.784692609918244 10.0 0.0
9.66186512498486 10.0 0.0
9.527663687265571 10.0 0.0
9.381035096339392 10.0 0.0
9.220828555768257 10.0 0.0
9.045786767736512 10.0 0.0
8.854535961160305 10.0 0.0
8.645575169391027 10.0 0.0
8.417264413847017 10.0 0.0
8.167811885740178 10.0 0.0
7.895259826295246 10.0 0.0
7.597469242951631 10.0 0.0
7.272102969379938 10.0 0.0
6.916607540131873 10.0 0.0
6.528192895511704 10.0 0.0
6.103810708667616 10.0 0.0
5.640130319512691 10.0 0.0
5.13351278094435 10.0 0.0
4.579982132668816 10.0 0.0
3.975193910361222 10.0 0.0
3.314401822869852 10.0 0.0
2.592419885437257 10.0 0.0
1.803581725058137 10.0 0.0
0.9416964895740705 10.0 0.0
0.0 9.00010000000243 0.0
0.0 8.000200000005481 0.0
0.0 7.000300000005135 0.0
0.0 6.000400000002569 0.0
0.901790731451151 5.000409820926855 0.0
1.657200899774397 5.000334279910023 0.0
2.289991063707192 5.000271000893629 0.0
2.820065163538221 5.000217993483646 0.0
3.264096435579811 5.000173590356442 0.0
3.636051481595835 5.00013639485184 0.0
3.947629914072366 5.000105237008593 0.0
4.208632181002628 5.0000791367819 0.0
4.427267949625672 5.000057273205037 0.0
4.610414277633563 5.000038958572237 0.0
4.763831845154243 5.000023616815485 0.0
4.892346298799659 5.00001076537012 0.0
4.892346298799748 4.99998923462988 0.0
4.763831845154455 4.999976383184515 0.0
4.610414277633943 4.999961041427763 0.0
4.427267949626277 4.999942726794963 0.0
4.208632181003523 4.9999208632181 0.0
3.94762991407365 4.999894762991407 0.0
3.636051481597624 4.99986360514816 0.0
3.264096435582253 4.999826409643559 0.0
2.820065163541503 4.999782006516354 0.0
2.289991063711534 4.999728999106371 0.0
1.657200899778495 4.999665720089978 0.0
0.9017907314530094 4.999590179073145 0.0
0.0 3.999600000002013 0.0
0.0 2.999700000005187 0.0
0.0 1.99980000000512 0.0
0.0 0.9999000000025537 0.0
9.897889398521345 2.93573355845387 0.0
9.906568249974548 7.060009441434234 0.0
9.913122631074113 3.64016132281653 0.0
9.922462129543863 6.354535290629151 0.0
9.917693659967533 4.354211663134567 0.0
9.909873057440208 5.637584487339942 0.0
9.914183254994697 4.950672966925282 0.0
9.913885043715895 7.666887930262611 0.0
9.91009668007573 2.351889069770817 0.0
9.905135696074536 8.138152454502785 0.0
9.913397459621809 1.849999999997262 0.0
7.099302372137626 0.297750452375005 0.0
7.095143729410097 9.700359990366296 0.0
4.942912558701401 5.095838627899509 0.0
4.315009232304429 5.165022115481685 0.0
4.946182472483878 4.906763777264103 0.0
4.317967462990024 4.825955043772673 0.0
9.916390871492647 8.64999999999792 0.0
9.921504649680616 1.368376469890358 0.0
8.292538149791614 0.206877570318844 0.0
8.292538149793597 9.793122429681448 0.0
5.884594439766573 9.587645267048616 0.0
5.794826292691579 0.3794853783929359 0.0
9.913397459621425 9.049999999998557 0.0
9.908526577714177 0.9568239351922434 0.0
3.456851160380649 5.315740054130451 0.0
3.457889657868442 4.707121019609468 0.0
8.945214200703926 0.1503383337970344 0.0
8.950161364448409 9.8413906539257 0.0
9.913862335499305 4.055887885208452 0.0
9.916697353372683 4.650158482607802 0.0
9.919076340414442 6.049999999994006 0.0
9.906994308667635 5.25749687748192 0.0
9.917490342358025 6.655979201891897 0.0
9.915757520293784 7.343848891656911 0.0
9.910049507471042 3.363474386285078 0.0
9.914471988502868 2.647400064832979 0.0
9.91474124160965 9.337490423485129 0.0
9.916971008170838 0.6499999999994355 0.0
4.307157269264427 9.509674045029644 0.0
4.331527375865619 0.4401616696422582 0.0
9.45434939180249 9.878397030523757 0.0
9.457696120412969 0.1270877537061785 0.0
2.555070293622606 5.422044496190925 0.0
2.566232917480916 4.608001224030952 0.0
3.026511860837692 9.332320638257093 0.0
2.945561971800619 0.5895662714727601 0.0
7.7395404387124 0.2511088946967771 0.0
7.736379255744154 9.745848826372828 0.0
4.687135269408529 5.122111433928926 0.0
4.688420821504113 4.871895064967488 0.0
9.910554884115975 0.3448356354522978 0.0
9.911230082250466 9.65764729394159 0.0
9.921953841410854 6.851023993342036 0.0
9.912065178606017 5.448170483544033 0.0
9.911660025326261 3.861846960030188 0.0
9.914847467973438 3.14501593945607 0.0
9.913397459621425 5.849999999993703 0.0
9.913397459621425 7.849999999996735 0.0
9.906916878988277 2.15455769998631 0.0
9.913397459621425 8.349999999997479 0.0
9.909472363117661 1.640528221515488 0.0
9.913987325695956 1.152857110636247 0.0
9.913397459621425 8.849999999998241 0.0
0.9100099990995943 2.614215977520411 0.0
0.8395284981715456 7.451196254860987 0.0
9.723278867451556 9.898135916635193 0.0
9.723316350887044 0.09841820909386662 0.0
1.385819164827588 4.454539963646463 0.0
1.338343629665047 5.523111536005823 0.0
1.377179700550677 0.6809168304959698 0.0
1.418060461092743 9.285896715136046 0.0
9.91268220142518 0.1457914080939694 0.0
9.906737126737994 9.845745933882352 0.0
0.7108351382691361 6.537941170074089 0.0
1.527735020267026 6.915620208855231 0.0
1.630993885659103 7.838271825205868 0.0
2.232760943566823 7.370850737296832 0.0
2.243414218068206 6.688299277952821 0.0
2.779655053105118 7.021588754814074 0.0
2.80227799359795 7.632420170547022 0.0
3.282022065908813 7.305859666021318 0.0
3.327597298795347 7.857554136825748 0.0
3.743210251018715 7.549183328204379 0.0
3.716353232200752 7.062036086888612 0.0
4.111978858674101 7.27497101169417 0.0
4.104192177581432 6.879858986267289 0.0
4.436230765617037 7.045693351607117 0.0
4.430360014817357 6.703971783962796 0.0
4.732390145036301 6.849841042423394 0.0
5.056161327708878 5.095276573498806 0.0
5.111586796021131 4.999081142133581 0.0
5.169267363407189 5.09444870412406 0.0
5.223795108752053 4.996986220359468 0.0
5.281480803887719 5.092780870372803 0.0
5.335670761900611 4.994887492556936 0.0
5.393485214772442 5.090486192743301 0.0
5.447323082877892 4.992601527033996 0.0
5.505243219343024 5.087953380710069 0.0
5.558739102026105 4.990287787962959 0.0
5.616491581184779 5.085335255235766 0.0
5.669852346908056 4.9879269227514 0.0
5.727502713908907 5.082679981817038 0.0
5.780766004135139 4.988313988715834 0.0
5.838244881129535 5.080480568766611 0.0
5.891357695677371 4.986433849408193 0.0
5.948696036767613 5.077969900389505 0.0
6.001601341641615 4.981313698556656 0.0
6.058851024265095 5.074871552128682 0.0
6.111614020704875 4.978360695880202 0.0
6.168801161530775 5.072044953270978 0.0
6.221368818778567 4.975825765213497 0.0
6.278268309066882 5.066182320461055 0.0
6.330814273567539 4.972837984645718 0.0
6.387565032421376 5.062889771971895 0.0
6.437476667631405 4.971693683589553 0.0
[...]
POINT_DATA 2538
VECTORS disp float
5.696010552421016e-12 6.0471224315375226e-12 0.0
5.663443784097654e-13 2.4777121884230608e-14 0.0
0.0006000000001903402 7.837362598699508e-13 0.0
0.0005999999822430519 -2.188466171927406e-11 0.0
0.0003255219861397071 0.00015615758053845702 0.0
0.0004492611885205993 -6.2323919658980525e-6 0.0
0.00035931645392951067 -2.3342383393577585e-5 0.0
-1.2888272028635443e-12 -1.5001250787051766e-12 0.0
4.04496003081297e-13 5.456667491463268e-13 0.0
1.7849699568834285e-13 -4.183952101846056e-13 0.0
6.187756341300117e-14 -2.3263697542971223e-13 0.0
-1.4873177383744154e-14 -5.05352155141944e-13 0.0
3.896239208899234e-14 -6.885585447455966e-13 0.0
3.2952367343181496e-14 -8.089882469459419e-13 0.0
4.584629615290562e-14 -8.462558054888358e-13 0.0
6.863540133399756e-14 -8.639432580637848e-13 0.0
4.164633406241136e-14 -8.620756636375021e-13 0.0
4.66894657975057e-14 -8.739099624290937e-13 0.0
3.508729541138366e-14 -9.055535840288208e-13 0.0
3.216726778348863e-14 -9.075613773826835e-13 0.0
2.4219900338363226e-14 -9.363909451778284e-13 0.0
6.415874798384726e-14 -9.086482410181158e-13 0.0
3.916786950779333e-14 -9.349322962746316e-13 0.0
3.224959532312578e-14 -9.317277370629716e-13 0.0
9.235684673005939e-14 -8.99730184602698e-13 0.0
7.365884633715952e-14 -9.51305598102481e-13 0.0
1.081998493901087e-13 -9.502440026492877e-13 0.0
1.3415084916659817e-13 -9.024926099478073e-13 0.0
1.050428696268928e-13 -8.652063497423359e-13 0.0
7.916281127048815e-14 -8.602700552993519e-13 0.0
4.031878953169982e-14 -8.840055369563019e-13 0.0
-8.204059018063565e-14 -5.725546672635753e-13 0.0
4.926413828168998e-6 -2.1051511310455226e-7 0.0
8.125678578499841e-6 -6.742935122755663e-7 0.0
1.1706849990897978e-5 -1.310644231064127e-6 0.0
1.5823633449944968e-5 -2.181839973725817e-6 0.0
1.9975920502454707e-5 -3.2445261382569324e-6 0.0
2.4265434953722442e-5 -4.470879315866461e-6 0.0
2.8952169753789015e-5 -5.759697993490391e-6 0.0
3.387063099668718e-5 -7.130350653944823e-6 0.0
3.915907963446326e-5 -8.533875390325682e-6 0.0
4.479975828835041e-5 -9.884679140015757e-6 0.0
5.064368459521107e-5 -1.1263902689187781e-5 0.0
5.6892621372447145e-5 -1.2629638355714565e-5 0.0
6.334121442294774e-5 -1.3935798306313403e-5 0.0
6.987216034876377e-5 -1.5249886380147939e-5 0.0
7.657417052666827e-5 -1.6572471134021034e-5 0.0
8.334890838042625e-5 -1.7851829184162734e-5 0.0
9.016263303684707e-5 -1.9098470449574092e-5 0.0
9.694475391965788e-5 -2.028386738861434e-5 0.0
0.0001035863948626841 -2.1449170265002276e-5 0.0
0.00011012513024048571 -2.259412505413255e-5 0.0
0.00011658473353918814 -2.3746169587586608e-5 0.0
0.00012299962875163468 -2.49071687654676e-5 0.0
0.00012938890736280924 -2.6073223786324384e-5 0.0
0.00013571190174579224 -2.7238397114518758e-5 0.0
0.00014203180617151237 -2.8415883021354318e-5 0.0
0.00014831886793395836 -2.9588423127717612e-5 0.0
0.0001545779286873026 -3.0757484103763516e-5 0.0
0.00016082801134274235 -3.189882253194662e-5 0.0
0.00016701680926300202 -3.3073246766325086e-5 0.0
0.00017326146450896555 -3.425137264334226e-5 0.0
0.00017965504949370064 -3.541437712313688e-5 0.0
0.0001861070774221997 -3.654114918824639e-5 0.0
0.00019257831273687337 -3.764608350387841e-5 0.0
0.0001991871858737826 -3.8720695618806896e-5 0.0
0.00020581106724010804 -3.975695001343602e-5 0.0
0.00021218253410479056 -4.0725819720541364e-5 0.0
0.00021819487824222098 -4.162756827446342e-5 0.0
0.00022366515572187185 -4.252192977230591e-5 0.0
0.00022861919523468554 -4.346748118823049e-5 0.0
0.00023306828820624195 -4.4354724736152096e-5 0.0
0.00023656073249636115 -4.5197860884891465e-5 0.0
0.0002390432862129413 -4.6128173177018776e-5 0.0
0.00024225741707185807 -4.6705498490489475e-5 0.0
0.00024533563946617224 -4.7647096198267545e-5 0.0
0.00024839793680202406 -4.894864552555028e-5 0.0
0.00025191913145330416 -5.039573047144551e-5 0.0
0.0002557925336623051 -5.2167769362817775e-5 0.0
0.0002600686669428592 -5.396617660204152e-5 0.0
0.0002649568235900343 -5.652344881339757e-5 0.0
0.000270292515057828 -5.875094681125409e-5 0.0
0.00027580332938327253 -6.0174612777527224e-5 0.0
0.0002817534007593566 -6.160982715541941e-5 0.0
0.0002876554198974851 -6.289567485216387e-5 0.0
0.00029386368728892125 -6.422563006259262e-5 0.0
0.00030035719033503464 -6.485651957811151e-5 0.0
0.00030786087085520107 -6.534084494046885e-5 0.0
0.00031532714568544603 -6.571569243289506e-5 0.0
0.00032246199091170535 -6.598728246731415e-5 0.0
0.0003292562786559978 -6.614828280381717e-5 0.0
0.0003358649864307665 -6.630024542067753e-5 0.0
0.00034235025195597377 -6.647160339364963e-5 0.0
0.0003488748699400043 -6.663027135330397e-5 0.0
0.0003553787460199369 -6.677188834412903e-5 0.0
0.0003617331442476296 -6.703423129405503e-5 0.0
0.00036797207279336004 -6.748675304113184e-5 0.0
0.00037416971907215386 -6.789499840123522e-5 0.0
0.0003803124294069111 -6.826165542338712e-5 0.0
0.0003864942839269962 -6.86147102747851e-5 0.0
0.0003928090587350075 -6.897659642856898e-5 0.0
0.0003992234217606788 -6.939321300032946e-5 0.0
0.0004056475610676615 -6.977666594507292e-5 0.0
0.00041220159783233594 -7.010705801647441e-5 0.0
0.00041872270708941903 -7.021870936857791e-5 0.0
0.0004251980772637563 -7.022715654058943e-5 0.0
0.00043178656230056253 -7.021089820399929e-5 0.0
0.0004384473255252367 -7.000513123971799e-5 0.0
0.00044537602366682104 -6.976123556072387e-5 0.0
0.00045213163787083074 -6.955796747657764e-5 0.0
0.00045858410267613804 -6.938342204904492e-5 0.0
0.00046474039528318265 -6.917977067374826e-5 0.0
0.0004706809607285398 -6.903298472795278e-5 0.0
0.00047608911185524584 -6.885953646616348e-5 0.0
0.00048123225332811234 -6.870810130109144e-5 0.0
0.0004860921406894227 -6.852528894370227e-5 0.0
0.0004906633721513117 -6.830280855718014e-5 0.0
0.0004952611805356231 -6.806061891255874e-5 0.0
0.0004999587204365782 -6.766954517144555e-5 0.0
0.0005043512318446535 -6.715924206228863e-5 0.0
0.0005088426365709286 -6.656500570859951e-5 0.0
0.0005138540863637998 -6.576589571038111e-5 0.0
0.0005190998674286542 -6.46102440840683e-5 0.0
0.0005238634425886405 -6.298048977410597e-5 0.0
0.0005286932929970617 -6.1023037521227284e-5 0.0
0.0005337165313088351 -5.875843198211899e-5 0.0
0.0005392761608045728 -5.611839908338767e-5 0.0
0.0005445407207764542 -5.229132153528255e-5 0.0
0.0005491679625373102 -4.6215865019292656e-5 0.0
0.0005587976118007689 -3.991913950496603e-5 0.0
0.00056702625124741 -2.8415762679369537e-5 0.0
0.0006000000032738231 2.758928247252025e-12 0.0
0.0005999999983487682 -2.2534812373224103e-12 0.0
0.0005999999999001181 3.8357977800944446e-13 0.0
0.0005999999995018191 -7.626670618434088e-14 0.0
0.0005999999998512344 3.1080267908603007e-13 0.0
0.0005999999998008794 5.015196219188576e-13 0.0
0.0005999999998900971 5.858431180278172e-13 0.0
0.0005999999998927807 6.300100214897985e-13 0.0
0.0005999999998627368 6.53054729102503e-13 0.0
0.0005999999998648845 6.575264842583594e-13 0.0
0.0005999999998515594 6.663773289368998e-13 0.0
0.0005999999998298 6.747861041209878e-13 0.0
0.0005999999998388504 6.708268510465839e-13 0.0
0.0005999999998320986 6.833435983392161e-13 0.0
0.000599999999831582 6.944904731038028e-13 0.0
0.0005999999998210311 6.810568816620775e-13 0.0
0.0005999999998075487 6.59019454793509e-13 0.0
0.0005999999997951223 5.284090337837709e-13 0.0
0.0005999999996496756 4.1767970290755906e-13 0.0
0.0005999999997860194 3.565845308698706e-13 0.0
0.0005999999997693701 3.789937350151337e-13 0.0
0.0005999999997322427 3.3593775815853953e-13 0.0
0.0005999999998539035 3.248002047924811e-13 0.0
0.0005999999998660191 4.132943764078591e-13 0.0
0.0005999999999484842 4.0195716947246004e-13 0.0
0.0005682057366916079 8.514538793397957e-6 0.0
0.0005335379484170183 9.111686936964906e-6 0.0
0.0004981194353509235 3.7466834668092705e-6 0.0
0.00047020691996980376 -3.4324221163354828e-6 0.0
0.00044636937812662296 -2.5244501655076777e-5 0.0
0.00044320065448790564 -3.806165090850245e-5 0.0
0.000440967395012245 -5.1777040327905555e-5 0.0
0.00043652879914853076 -6.292226390916189e-5 0.0
0.00043086694092659187 -7.108679575562504e-5 0.0
0.0004239565611138892 -7.764140291286762e-5 0.0
0.00041721358816550967 -8.226418872652486e-5 0.0
0.0004102272538888861 -8.401181486942643e-5 0.0
0.00040624267022782335 -8.175768418103299e-5 0.0
0.0004019934558155316 -7.279531462719372e-5 0.0
0.0003948725090023433 -6.136119099719919e-5 0.0
0.00038215562732376625 -4.778894648434667e-5 0.0
0.00035405803732218476 -1.0722870525942435e-5 0.0
0.0003498227165316349 -5.266797643174403e-7 0.0
0.00034551312820527396 8.260668086066238e-6 0.0
0.00034065923099834485 1.693042899667888e-5 0.0
0.00033524666310940336 2.496930660531122e-5 0.0
0.0003303643054529166 3.3432528580350376e-5 0.0
0.0003252546717864966 4.314269013290422e-5 0.0
0.0003205458113292669 5.2858979661103455e-5 0.0
0.0003173415725592954 6.595644934728249e-5 0.0
0.000315279547086487 8.023368834537049e-5 0.0
0.00031735071189697094 9.992648119693274e-5 0.0
0.0003195605442189717 0.00012561499250111026 0.0
0.00028959878196429677 0.00015618429708432453 0.0
0.00024098209326551984 0.00015730720524549557 0.0
0.0001965996680427434 0.0001502124133499011 0.0
0.0001426261410526111 0.00011991472975379398 0.0
0.00016846308049971065 -3.117357072143016e-5 0.0
0.00040278403681849183 -6.378128904081216e-5 0.0
0.00021409883400103544 -3.8975765131221495e-5 0.0
0.00035862498852266757 -6.200714291323758e-5 0.0
0.0002432903356409997 -4.63168372348591e-5 0.0
0.00031050127718845126 -5.911074950857817e-5 0.0
0.0002661150070370296 -5.317264165274268e-5 0.0
0.00044321768939468113 -6.400865818775972e-5 0.0
0.00013198492810238615 -2.4767137595040036e-5 0.0
0.00047285617635660506 -6.248002603493686e-5 0.0
9.962945774035532e-5 -1.8949970249643806e-5 0.0
1.304697712420231e-5 -2.0514726348645193e-6 0.0
0.0005793133173746244 7.074759511960571e-7 0.0
0.000358476774123849 -2.524189756866404e-5 0.0
0.00040201117739545013 -7.97775156214551e-5 0.0
0.0003360849742760215 -1.5578545319442003e-5 0.0
0.0003176175988542976 2.2858069269967028e-5 0.0
0.0004978312313211911 -6.159707794695209e-5 0.0
6.718229748189712e-5 -1.3254203237310186e-5 0.0
9.754190956022037e-6 -1.6480415660271833e-6 0.0
0.0005861180063714824 6.009509691308527e-7 0.0
0.0005713504354227893 5.309745572072675e-7 0.0
1.584832723030704e-5 -2.4445614518082167e-6 0.0
0.0005172393406744769 -5.800154927055511e-5 0.0
4.15893902550731e-5 -8.143532089014382e-6 0.0
0.00042774104665300127 -6.882629608618851e-5 0.0
0.0003016417982387556 4.864567500495286e-5 0.0
7.639741693765296e-6 -1.1158045170827303e-6 0.0
0.000589624011599226 2.2265239516012658e-7 0.0
0.00023445268729822393 -4.3798022929270756e-5 0.0
0.00025270807221426916 -4.9305302135677516e-5 0.0
0.0003390033446447268 -6.100094886126495e-5 0.0
0.00028399161145192494 -5.669241744768702e-5 0.0
0.00037732538757309387 -6.315806189401516e-5 0.0
0.0004215771478390016 -6.467618894700466e-5 0.0
0.00019615477562714352 -3.60468627584728e-5 0.0
0.00015063131611390507 -2.8284699704912356e-5 0.0
0.0005321166959459209 -5.195811798885622e-5 0.0
2.5873294784605683e-5 -4.892052016070847e-6 0.0
0.0005695113714024011 -1.5843484059352622e-6 0.0
1.770193519839407e-5 -1.2898418195596737e-6 0.0
0.0005903626924923166 -1.1535315452447961e-6 0.0
6.103207984083924e-6 -7.653523148253655e-7 0.0
0.00044423820534834034 -5.3649267585322926e-5 0.0
0.0002982398840427979 7.22308628986502e-5 0.0
0.0005662720789143944 -2.334543921296171e-6 0.0
2.8071185415046458e-5 2.303393136265214e-6 0.0
1.1348649814441036e-5 -1.9014201005383201e-6 0.0
0.0005826325121854015 6.282230628610964e-7 0.0
0.00038502984499449316 -6.155311928962214e-5 0.0
0.00032761367457192353 4.924883384139585e-6 0.0
1.2941472114264217e-5 -2.200238832322153e-6 0.0
0.0005520464784397002 -3.746273006150613e-5 0.0
0.00038946510210907556 -6.406064744832415e-5 0.0
0.0002965066246124076 -5.877205572898725e-5 0.0
0.00022608152987504027 -4.136123243006508e-5 0.0
0.00018196066895911236 -3.387998947324116e-5 0.0
0.00032577425309329705 -6.006730041668378e-5 0.0
0.0004554225656929354 -6.364382466570725e-5 0.0
0.00011937651339782885 -2.238630988174528e-5 0.0
0.0004837617664200806 -6.247174615653388e-5 0.0
8.539517513811892e-5 -1.635307128573958e-5 0.0
5.3209632015529774e-5 -1.051835106319874e-5 0.0
0.000506934782039578 -6.0182853596024336e-5 0.0
0.00021382767806180298 9.481508132283192e-5 0.0
0.0005066748023635239 -1.0485746716056998e-5 0.0
0.0005886185694745767 -2.244280863224392e-6 0.0
4.553799898112386e-6 -6.679192183038239e-7 0.0
0.00029904416229542617 0.00010690708441315608 0.0
0.00045409421431442834 -3.0400234038329265e-5 0.0
3.592626095548157e-5 5.115104238442211e-6 0.0
0.0005745771736205315 -9.78183057770258e-7 0.0
6.030356361283491e-6 -9.397772943138656e-7 0.0
0.0005711186500547531 -1.692691715586215e-5 0.0
0.00047899450932849193 -1.6170817706293277e-5 0.0
0.00048150407063842485 -2.2331638379821068e-5 0.0
0.0005129298412660606 -1.3262798970187061e-5 0.0
0.0004869523699483447 -1.9817219191738616e-5 0.0
0.0004622391623065944 -3.027115262703549e-5 0.0
0.00046341122922602987 -2.5746011727456365e-5 0.0
0.0004891215131687898 -1.7224112919534037e-5 0.0
0.00046697407861467666 -2.0770120227874246e-5 0.0
0.0004923773929687126 -1.4366043434895726e-5 0.0
0.00047187480913904564 -1.6972532420553303e-5 0.0
0.00044828953447158834 -2.3055287293607803e-5 0.0
0.0004527329058085415 -1.8654856027371795e-5 0.0
0.0004322894844182055 -2.3709433529983667e-5 0.0
0.00043568828908935596 -1.9289262644299414e-5 0.0
0.0004177486497666033 -2.347601993557365e-5 0.0
0.00042071043657674977 -1.7409388735655098e-5 0.0
0.0003538094514439607 -1.6960755902105995e-5 0.0
0.000351018793557903 -1.8254484326732892e-5 0.0
0.00034916384427139443 -1.3486839318957413e-5 0.0
0.00034432503756012535 -1.6020299011383656e-5 0.0
0.00034438209724525916 -1.1999512151733908e-5 0.0
0.00033914504472128587 -1.393433951305607e-5 0.0
0.00034028435589820495 -1.066036467973041e-5 0.0
0.00033471209410239496 -1.2492121839049358e-5 0.0
0.00033658731780256503 -9.761877637123798e-6 0.0
0.00033063380553340787 -1.1697671067793517e-5 0.0
0.00033302587841427565 -9.2330504096602e-6 0.0
0.0003270754117308453 -1.0894496510800847e-5 0.0
0.0003297901076966493 -8.740232968185529e-6 0.0
0.00032402100916457033 -1.0027275764943054e-5 0.0
0.0003267727001452855 -7.956398343671902e-6 0.0
0.00032100579132191074 -9.187938153416984e-6 0.0
0.00032401848020314724 -7.430249916588793e-6 0.0
0.0003179922659385342 -8.78472514971986e-6 0.0
0.00032136089851257123 -7.093062071736464e-6 0.0
0.0003153637825085883 -8.218203269415966e-6 0.0
0.00031886807664472066 -6.625341413314402e-6 0.0
0.00031288330905176966 -7.724702669763378e-6 0.0
0.0003163224521071881 -6.284582365413809e-6 0.0
0.00031046553429415916 -7.383606644901475e-6 0.0
0.0003140025457021072 -6.090703898990958e-6 0.0
0.0003083363510996326 -7.104637888005538e-6 0.0
0.0003117643185821949 -5.802220033289543e-6 0.0
0.00030596126444025923 -6.958808348210136e-6 0.0
0.00030952475758741586 -5.68053531403652e-6 0.0
0.00030247061768602483 -7.181848425786519e-6 0.0
0.00030762623883102855 -5.676242390529316e-6 0.0
0.0003014867760310847 -6.762461427205045e-6 0.0
0.00030557703021721156 -5.650673699584373e-6 0.0
0.00029962861636756227 -6.785804590771844e-6 0.0
0.00030362014161573454 -5.770008988321917e-6 0.0
0.0002979776940237752 -6.8801253826495095e-6 0.0
0.00030165598132284396 -5.961947834937537e-6 0.0
0.00029609828286330294 -7.072718629050903e-6 0.0
0.00032559432320924264 -1.4193982337174616e-5 0.0
0.0002997422738884694 -6.25916326870067e-6 0.0
0.00031084545229028945 -9.957333089115893e-6 0.0
0.00029566642237126913 -8.147274948791914e-6 0.0
0.0002938999176477884 -7.483905092227226e-6 0.0
0.00029783304763590147 -6.6819287354107975e-6 0.0
0.00029170339961649043 -7.994470241992387e-6 0.0
0.0002877147643592807 -8.739481492295982e-6 0.0
0.0002853340071679205 -9.333863966401866e-6 0.0
0.0002956603788507127 -7.2449102498385475e-6 0.0
0.0003016386473797172 -5.921956628336202e-6 0.0
0.0003109308979997251 -4.690124062127659e-6 0.0
0.0002995638510825571 -6.55690532783012e-6 0.0
0.000305820470804094 -5.163902138532501e-6 0.0
0.0003035525384831229 -5.9427119632175945e-6 0.0
0.0002812692263897096 -1.0020741750685124e-5 0.0
0.0002791812454661076 -1.0598216515317066e-5 0.0
0.0003099616588981881 -4.5297964485288095e-6 0.0
0.0002746533746290116 -1.1273035836067416e-5 0.0
0.00027290966948566433 -1.1852206722892416e-5 0.0
0.0003078954885842339 -5.359118607971382e-6 0.0
0.0003140476049986547 -4.056985774510875e-6 0.0
0.00026791719834512326 -1.2477935704215732e-5 0.0
0.0002660955977700268 -1.3128429772213145e-5 0.0
0.000312245604158786 -4.92664148141663e-6 0.0
0.0003186492686019573 -3.631398906391309e-6 0.0
0.00026120719355744585 -1.3599017997510176e-5 0.0
0.0002593748979997809 -1.4330258358900829e-5 0.0
0.00031692798277595263 -4.631226423794881e-6 0.0
0.0003236993821040578 -3.333350391875047e-6 0.0
0.00025459984488610665 -1.4617922165617128e-5 0.0
0.00025248301075455265 -1.5403320793786725e-5 0.0
0.00032218641576876666 -4.430721774549063e-6 0.0
0.00032921305799848 -3.152799012584601e-6 0.0
0.0002473649518958995 -1.554088739160016e-5 0.0
0.00024548941888348627 -1.6387462779454627e-5 0.0
0.0002398397572576975 -1.641784441395623e-5 0.0
0.00024168781123637162 -1.5618427064148075e-5 0.0
0.00031480942836461574 -5.809067265489914e-6 0.0
0.0003277854196775849 -4.390714333473699e-6 0.0
0.0003351653533565884 -3.093388325591494e-6 0.0
0.0003366592200053959 -1.8951758928000363e-6 0.0
0.00032125043929765715 -5.282955264436507e-6 0.0
0.00034305995280116766 -1.8180573941973486e-6 0.0
0.0003445597670275066 -7.147573318890439e-7 0.0
0.0003513854341725222 -5.865718150630921e-7 0.0
0.0002385981674148967 -1.7335865663059236e-5 0.0
0.00023265622545964168 -1.714537092849413e-5 0.0
0.00024405339892069432 -1.737876825956478e-5 0.0
0.00033364192110167147 -4.527253983463922e-6 0.0
0.00023164750104845595 -1.8077527458386755e-5 0.0
0.00022536433738597948 -1.772729600312536e-5 0.0
0.00033166950934468284 -6.752459753015005e-6 0.0
0.00022450623474051584 -1.860585897940418e-5 0.0
0.00021780882995964094 -1.8130397651319568e-5 0.0
0.00021706529265329256 -1.9011438509130925e-5 0.0
0.0002100115148529203 -1.8385107275106015e-5 0.0
0.00021057678093169767 -1.7573232954670995e-5 0.0
0.00020165302518418787 -1.7801009642909387e-5 0.0
0.00020239989272914343 -1.6967267937162334e-5 0.0
0.00020837162137749219 -1.9276029638513293e-5 0.0
0.00019240486423340044 -1.7130803407839486e-5 0.0
0.00019314757443490943 -1.6348303587309954e-5 0.0
0.00021640807586385214 -2.0024719272536324e-5 0.0
0.0002089835595601204 -2.0348435072434164e-5 0.0
0.0001831181082917798 -1.6371975733530427e-5 0.0
0.00018353600345485775 -1.5653119389102504e-5 0.0
0.00035300551503851275 3.3940879012376295e-7 0.0
0.00036032144725250525 4.999951349248242e-7 0.0
0.00021578814052987212 -2.1087291523147348e-5 0.0
0.00020848263349290358 -2.1352874474696914e-5 0.0
0.0003619682531351831 1.3060776041904703e-6 0.0
0.00036983922571254144 1.4987114146183339e-6 0.0
0.0003678376061039454 4.998560360740318e-7 0.0
0.00037766242638664666 1.6094674778880874e-6 0.0
0.0003758792148444696 4.1222974480779706e-7 0.0
0.00038597607340459556 1.6671929172399635e-6 0.0
0.00038473903290987756 3.318325416855126e-7 0.0
0.0003954678814197041 1.8142381148593726e-6 0.0
0.00039340664858612145 2.78119956563961e-7 0.0
0.00039657849768972404 2.761867570180693e-6 0.0
0.000404586061318657 1.8511204905099606e-6 0.0
0.00040205366597879726 3.735786228199409e-8 0.0
0.0002153082546076661 -2.2165422311034405e-5 0.0
0.00017275430858109243 -1.558648894296171e-5 0.0
0.00017299938474382817 -1.4878266771815459e-5 0.0
0.0003916884125267156 -2.0663223196307577e-6 0.0
0.00040008733609795245 -2.604874628469448e-6 0.0
0.00041056534089722977 -3.133910066023055e-7 0.0
0.00039044700367018453 -5.1141971911536075e-6 0.0
0.00020818057998054802 -2.2387024418576272e-5 0.0
0.00040872401709727245 -3.3885956756488367e-6 0.0
0.0004192549336668502 -8.212607060360074e-7 0.0
0.00021485606975186163 -2.3281719104670687e-5 0.0