# vtk DataFile Version 2.0
phase field modeling fracture
ASCII
DATASET UNSTRUCTURED_GRID
POINTS 2538 float
0.0 0.0 0.0
10.0 0.0 0.0
0.0 10.0 0.0
10.0 10.0 0.0
0.0 4.9995 0.0
0.0 5.0005 0.0
5.0 5.0 0.0
0.9416964895726688 0.0 0.0
1.803581725054446 0.0 0.0
2.592419885431098 0.0 0.0
3.314401822861676 0.0 0.0
3.975193910351406 0.0 0.0
4.579982132660152 0.0 0.0
5.133512780936812 0.0 0.0
5.640130319506143 0.0 0.0
6.103810708661955 0.0 0.0
6.528192895506818 0.0 0.0
6.916607540127679 0.0 0.0
7.272102969376355 0.0 0.0
7.597469242948583 0.0 0.0
7.895259826292669 0.0 0.0
8.167811885738017 0.0 0.0
8.417264413845215 0.0 0.0
8.645575169389538 0.0 0.0
8.854535961159101 0.0 0.0
9.045786767735546 0.0 0.0
9.220828555767493 0.0 0.0
9.38103509633881 0.0 0.0
9.527663687265145 0.0 0.0
9.661865124984566 0.0 0.0
9.784692609918062 0.0 0.0
9.897110148790482 0.0 0.0
10.0 0.09999999999992584 0.0
10.0 0.199999999999856 0.0
10.0 0.2999999999997771 0.0
10.0 0.3999999999996677 0.0
10.0 0.4999999999995511 0.0
10.0 0.5999999999994683 0.0
10.0 0.6999999999993983 0.0
10.0 0.7999999999993286 0.0
10.0 0.8999999999992587 0.0
10.0 0.9999999999991888 0.0
10.0 1.099999999999119 0.0
10.0 1.199999999999033 0.0
10.0 1.299999999998852 0.0
10.0 1.399999999998576 0.0
10.0 1.499999999998284 0.0
10.0 1.599999999997992 0.0
10.0 1.6999999999977 0.0
10.0 1.799999999997408 0.0
10.0 1.899999999997116 0.0
10.0 1.999999999996825 0.0
10.0 2.099999999996533 0.0
10.0 2.199999999996241 0.0
10.0 2.299999999995949 0.0
10.0 2.399999999995657 0.0
10.0 2.499999999995365 0.0
10.0 2.599999999995073 0.0
10.0 2.699999999994782 0.0
10.0 2.79999999999449 0.0
10.0 2.899999999994198 0.0
10.0 2.999999999993906 0.0
10.0 3.099999999993614 0.0
10.0 3.199999999993322 0.0
10.0 3.299999999993029 0.0
10.0 3.399999999992738 0.0
10.0 3.499999999992446 0.0
10.0 3.599999999992154 0.0
10.0 3.699999999991863 0.0
10.0 3.799999999991571 0.0
10.0 3.899999999991278 0.0
10.0 3.999999999991022 0.0
10.0 4.099999999991035 0.0
10.0 4.199999999991187 0.0
10.0 4.299999999991338 0.0
10.0 4.399999999991491 0.0
10.0 4.499999999991642 0.0
10.0 4.599999999991795 0.0
10.0 4.699999999991947 0.0
10.0 4.799999999992099 0.0
10.0 4.89999999999225 0.0
10.0 4.999999999992403 0.0
10.0 5.099999999992555 0.0
10.0 5.199999999992706 0.0
10.0 5.299999999992858 0.0
10.0 5.39999999999301 0.0
10.0 5.499999999993161 0.0
10.0 5.599999999993313 0.0
10.0 5.699999999993466 0.0
10.0 5.799999999993618 0.0
10.0 5.899999999993771 0.0
10.0 5.999999999993922 0.0
10.0 6.099999999994074 0.0
10.0 6.199999999994227 0.0
10.0 6.299999999994378 0.0
10.0 6.39999999999453 0.0
10.0 6.499999999994682 0.0
10.0 6.599999999994833 0.0
10.0 6.699999999994986 0.0
10.0 6.799999999995138 0.0
10.0 6.899999999995289 0.0
10.0 6.999999999995442 0.0
10.0 7.099999999995594 0.0
10.0 7.199999999995747 0.0
10.0 7.299999999995897 0.0
10.0 7.39999999999605 0.0
10.0 7.499999999996202 0.0
10.0 7.599999999996353 0.0
10.0 7.699999999996505 0.0
10.0 7.799999999996658 0.0
10.0 7.899999999996808 0.0
10.0 7.999999999996962 0.0
10.0 8.099999999997113 0.0
10.0 8.199999999997265 0.0
10.0 8.299999999997418 0.0
10.0 8.399999999997569 0.0
10.0 8.499999999997721 0.0
10.0 8.599999999997873 0.0
10.0 8.699999999998024 0.0
10.0 8.799999999998176 0.0
10.0 8.899999999998329 0.0
10.0 8.99999999999848 0.0
10.0 9.099999999998634 0.0
10.0 9.199999999998786 0.0
10.0 9.299999999998937 0.0
10.0 9.399999999999089 0.0
10.0 9.499999999999241 0.0
10.0 9.599999999999392 0.0
10.0 9.699999999999545 0.0
10.0 9.799999999999697 0.0
10.0 9.899999999999848 0.0
9.897110148790565 10.0 0.0
9.784692609918244 10.0 0.0
9.66186512498486 10.0 0.0
9.527663687265571 10.0 0.0
9.381035096339392 10.0 0.0
9.220828555768257 10.0 0.0
9.045786767736512 10.0 0.0
8.854535961160305 10.0 0.0
8.645575169391027 10.0 0.0
8.417264413847017 10.0 0.0
8.167811885740178 10.0 0.0
7.895259826295246 10.0 0.0
7.597469242951631 10.0 0.0
7.272102969379938 10.0 0.0
6.916607540131873 10.0 0.0
6.528192895511704 10.0 0.0
6.103810708667616 10.0 0.0
5.640130319512691 10.0 0.0
5.13351278094435 10.0 0.0
4.579982132668816 10.0 0.0
3.975193910361222 10.0 0.0
3.314401822869852 10.0 0.0
2.592419885437257 10.0 0.0
1.803581725058137 10.0 0.0
0.9416964895740705 10.0 0.0
0.0 9.00010000000243 0.0
0.0 8.000200000005481 0.0
0.0 7.000300000005135 0.0
0.0 6.000400000002569 0.0
0.901790731451151 5.000409820926855 0.0
1.657200899774397 5.000334279910023 0.0
2.289991063707192 5.000271000893629 0.0
2.820065163538221 5.000217993483646 0.0
3.264096435579811 5.000173590356442 0.0
3.636051481595835 5.00013639485184 0.0
3.947629914072366 5.000105237008593 0.0
4.208632181002628 5.0000791367819 0.0
4.427267949625672 5.000057273205037 0.0
4.610414277633563 5.000038958572237 0.0
4.763831845154243 5.000023616815485 0.0
4.892346298799659 5.00001076537012 0.0
4.892346298799748 4.99998923462988 0.0
4.763831845154455 4.999976383184515 0.0
4.610414277633943 4.999961041427763 0.0
4.427267949626277 4.999942726794963 0.0
4.208632181003523 4.9999208632181 0.0
3.94762991407365 4.999894762991407 0.0
3.636051481597624 4.99986360514816 0.0
3.264096435582253 4.999826409643559 0.0
2.820065163541503 4.999782006516354 0.0
2.289991063711534 4.999728999106371 0.0
1.657200899778495 4.999665720089978 0.0
0.9017907314530094 4.999590179073145 0.0
0.0 3.999600000002013 0.0
0.0 2.999700000005187 0.0
0.0 1.99980000000512 0.0
0.0 0.9999000000025537 0.0
9.897889398521345 2.93573355845387 0.0
9.906568249974548 7.060009441434234 0.0
9.913122631074113 3.64016132281653 0.0
9.922462129543863 6.354535290629151 0.0
9.917693659967533 4.354211663134567 0.0
9.909873057440208 5.637584487339942 0.0
9.914183254994697 4.950672966925282 0.0
9.913885043715895 7.666887930262611 0.0
9.91009668007573 2.351889069770817 0.0
9.905135696074536 8.138152454502785 0.0
9.913397459621809 1.849999999997262 0.0
7.099302372137626 0.297750452375005 0.0
7.095143729410097 9.700359990366296 0.0
4.942912558701401 5.095838627899509 0.0
4.315009232304429 5.165022115481685 0.0
4.946182472483878 4.906763777264103 0.0
4.317967462990024 4.825955043772673 0.0
9.916390871492647 8.64999999999792 0.0
9.921504649680616 1.368376469890358 0.0
8.292538149791614 0.206877570318844 0.0
8.292538149793597 9.793122429681448 0.0
5.884594439766573 9.587645267048616 0.0
5.794826292691579 0.3794853783929359 0.0
9.913397459621425 9.049999999998557 0.0
9.908526577714177 0.9568239351922434 0.0
3.456851160380649 5.315740054130451 0.0
3.457889657868442 4.707121019609468 0.0
8.945214200703926 0.1503383337970344 0.0
8.950161364448409 9.8413906539257 0.0
9.913862335499305 4.055887885208452 0.0
9.916697353372683 4.650158482607802 0.0
9.919076340414442 6.049999999994006 0.0
9.906994308667635 5.25749687748192 0.0
9.917490342358025 6.655979201891897 0.0
9.915757520293784 7.343848891656911 0.0
9.910049507471042 3.363474386285078 0.0
9.914471988502868 2.647400064832979 0.0
9.91474124160965 9.337490423485129 0.0
9.916971008170838 0.6499999999994355 0.0
4.307157269264427 9.509674045029644 0.0
4.331527375865619 0.4401616696422582 0.0
9.45434939180249 9.878397030523757 0.0
9.457696120412969 0.1270877537061785 0.0
2.555070293622606 5.422044496190925 0.0
2.566232917480916 4.608001224030952 0.0
3.026511860837692 9.332320638257093 0.0
2.945561971800619 0.5895662714727601 0.0
7.7395404387124 0.2511088946967771 0.0
7.736379255744154 9.745848826372828 0.0
4.687135269408529 5.122111433928926 0.0
4.688420821504113 4.871895064967488 0.0
9.910554884115975 0.3448356354522978 0.0
9.911230082250466 9.65764729394159 0.0
9.921953841410854 6.851023993342036 0.0
9.912065178606017 5.448170483544033 0.0
9.911660025326261 3.861846960030188 0.0
9.914847467973438 3.14501593945607 0.0
9.913397459621425 5.849999999993703 0.0
9.913397459621425 7.849999999996735 0.0
9.906916878988277 2.15455769998631 0.0
9.913397459621425 8.349999999997479 0.0
9.909472363117661 1.640528221515488 0.0
9.913987325695956 1.152857110636247 0.0
9.913397459621425 8.849999999998241 0.0
0.9100099990995943 2.614215977520411 0.0
0.8395284981715456 7.451196254860987 0.0
9.723278867451556 9.898135916635193 0.0
9.723316350887044 0.09841820909386662 0.0
1.385819164827588 4.454539963646463 0.0
1.338343629665047 5.523111536005823 0.0
1.377179700550677 0.6809168304959698 0.0
1.418060461092743 9.285896715136046 0.0
9.91268220142518 0.1457914080939694 0.0
9.906737126737994 9.845745933882352 0.0
0.7108351382691361 6.537941170074089 0.0
1.527735020267026 6.915620208855231 0.0
1.630993885659103 7.838271825205868 0.0
2.232760943566823 7.370850737296832 0.0
2.243414218068206 6.688299277952821 0.0
2.779655053105118 7.021588754814074 0.0
2.80227799359795 7.632420170547022 0.0
3.282022065908813 7.305859666021318 0.0
3.327597298795347 7.857554136825748 0.0
3.743210251018715 7.549183328204379 0.0
3.716353232200752 7.062036086888612 0.0
4.111978858674101 7.27497101169417 0.0
4.104192177581432 6.879858986267289 0.0
4.436230765617037 7.045693351607117 0.0
4.430360014817357 6.703971783962796 0.0
4.732390145036301 6.849841042423394 0.0
5.056161327708878 5.095276573498806 0.0
5.111586796021131 4.999081142133581 0.0
5.169267363407189 5.09444870412406 0.0
5.223795108752053 4.996986220359468 0.0
5.281480803887719 5.092780870372803 0.0
5.335670761900611 4.994887492556936 0.0
5.393485214772442 5.090486192743301 0.0
5.447323082877892 4.992601527033996 0.0
5.505243219343024 5.087953380710069 0.0
5.558739102026105 4.990287787962959 0.0
5.616491581184779 5.085335255235766 0.0
5.669852346908056 4.9879269227514 0.0
5.727502713908907 5.082679981817038 0.0
5.780766004135139 4.988313988715834 0.0
5.838244881129535 5.080480568766611 0.0
5.891357695677371 4.986433849408193 0.0
5.948696036767613 5.077969900389505 0.0
6.001601341641615 4.981313698556656 0.0
6.058851024265095 5.074871552128682 0.0
6.111614020704875 4.978360695880202 0.0
6.168801161530775 5.072044953270978 0.0
6.221368818778567 4.975825765213497 0.0
6.278268309066882 5.066182320461055 0.0
6.330814273567539 4.972837984645718 0.0
6.387565032421376 5.062889771971895 0.0
6.437476667631405 4.971693683589553 0.0
[...]
POINT_DATA 2538
VECTORS disp float
1.188741012401083e-11 1.4982011991320233e-11 0.0
9.464055622911295e-13 -3.9039847033262705e-12 0.0
0.0011000000003566486 1.604942346205245e-12 0.0
0.0010999999792528697 -3.791294884526994e-11 0.0
0.0005559268485775639 0.00025707597276018425 0.0
0.0008236745141581377 2.686654268516424e-5 0.0
0.0006752296095291217 -6.012487147435102e-5 0.0
-2.3972819402034887e-12 -3.449738540304486e-12 0.0
8.815673906788593e-13 7.98278441188469e-13 0.0
2.4307164501601904e-13 -1.3243342594755523e-12 0.0
3.3704797618063615e-13 -9.290721946539223e-13 0.0
1.6542642785177609e-13 -8.967866759604072e-13 0.0
2.285596002714619e-13 -1.0413467207739758e-12 0.0
1.7042627415731004e-13 -1.1887638018808343e-12 0.0
1.489233529731091e-13 -1.4235465973047489e-12 0.0
1.2802996821345952e-13 -1.628874635263817e-12 0.0
2.0225546747741814e-13 -1.8017132836950902e-12 0.0
2.015085352879792e-13 -1.8897104073298625e-12 0.0
2.1630252967169324e-13 -1.942736626260031e-12 0.0
2.2424127872231184e-13 -1.970845871124286e-12 0.0
2.2170705806317853e-13 -1.967700794372042e-12 0.0
2.342660236350973e-13 -2.0271540887558038e-12 0.0
2.200299129336042e-13 -2.0457605228152507e-12 0.0
2.0936668296853494e-13 -2.123324459191515e-12 0.0
2.1905135098879298e-13 -2.2054072051386447e-12 0.0
1.9757063219273303e-13 -2.2459855757899636e-12 0.0
2.0012403804015648e-13 -2.3056688547392364e-12 0.0
2.355088081483506e-13 -2.34359740941201e-12 0.0
2.543733467853477e-13 -2.3766146402082674e-12 0.0
2.485642237064509e-13 -2.4245997376765585e-12 0.0
3.448849833096572e-13 -2.5191236370796e-12 0.0
1.7170051970147956e-13 -2.33684009408357e-12 0.0
1.2424389678409903e-5 -3.501589817828984e-6 0.0
2.3259711650118475e-5 -6.628557034822158e-6 0.0
3.394585196271595e-5 -9.573525598635093e-6 0.0
4.440073358195459e-5 -1.249393917893245e-5 0.0
5.475825818753256e-5 -1.5397547980362237e-5 0.0
6.496342595800179e-5 -1.8338785557951458e-5 0.0
7.525674160969183e-5 -2.1220644696763287e-5 0.0
8.541469224773952e-5 -2.4221569753449885e-5 0.0
9.540089568255674e-5 -2.727083244968588e-5 0.0
0.00010532685466454237 -3.030390093187886e-5 0.0
0.00011514907653557972 -3.335791095550709e-5 0.0
0.0001250445355609731 -3.651340624606968e-5 0.0
0.00013451712304608332 -3.973206569316134e-5 0.0
0.0001438844846888502 -4.2855712610346934e-5 0.0
0.00015438860001145232 -4.657716336584058e-5 0.0
0.00016414805167975664 -5.051343984700843e-5 0.0
0.0001741832539335909 -5.4380492316649264e-5 0.0
0.00018422942412038557 -5.8003402542795355e-5 0.0
0.0001945177866301283 -6.154779184715928e-5 0.0
0.0002050168423996458 -6.477610417608255e-5 0.0
0.00021607022333539478 -6.765806130991723e-5 0.0
0.0002267034999193173 -7.03200779092818e-5 0.0
0.00023843784752915412 -7.255900820155328e-5 0.0
0.00024951111455488105 -7.497110662497108e-5 0.0
0.000261278553508666 -7.707173520158532e-5 0.0
0.00027265741237587156 -7.924921315549965e-5 0.0
0.0002840453224947611 -8.132874665605837e-5 0.0
0.000295217156354231 -8.328502730782917e-5 0.0
0.00030652177684151747 -8.513832432117717e-5 0.0
0.00031733742493792014 -8.709128875334843e-5 0.0
0.0003281507822199558 -8.902289608104358e-5 0.0
0.00033878618962419194 -9.092268287497637e-5 0.0
0.00034942479628748943 -9.298210888573939e-5 0.0
0.00036022068608787566 -9.514288824475592e-5 0.0
0.0003706996541624704 -9.797725504401224e-5 0.0
0.00038003499056162975 -0.00010124740201788762 0.0
0.0003880737789312227 -0.00010571748373000511 0.0
0.00039761571007969446 -0.00010960678775653052 0.0
0.0004036053335540039 -0.0001127421540818334 0.0
0.00041195683242275393 -0.00011430019859458206 0.0
0.0004204266363992318 -0.00011532401449117319 0.0
0.0004292775414646486 -0.0001163794464091672 0.0
0.0004396560611414795 -0.0001169586320770691 0.0
0.0004505906854160793 -0.00011756960177291724 0.0
0.0004616830467673678 -0.000118127235385514 0.0
0.0004729911571935789 -0.0001185686558848193 0.0
0.0004845989790422707 -0.00011888987231824575 0.0
0.0004966844416466438 -0.00011882600466557137 0.0
0.000508911681642308 -0.00011897180870904778 0.0
0.0005221298718953767 -0.00011892311274528143 0.0
0.0005358598809549675 -0.00011908723669146267 0.0
0.0005516893617329644 -0.000119109331391369 0.0
0.0005667460963602252 -0.00011936991105308925 0.0
0.0005799384996409722 -0.00011962224684515411 0.0
0.0005908461475264643 -0.00012000998747817259 0.0
0.0006010731528120908 -0.0001201429384360323 0.0
0.0006100606418857214 -0.00012037309632905981 0.0
0.0006190317880853274 -0.00012067287156344979 0.0
0.0006281072196208459 -0.00012118287050873414 0.0
0.0006368791133288971 -0.00012178019884277738 0.0
0.0006453852911183076 -0.00012244317139860906 0.0
0.0006541694388967868 -0.00012314143939998784 0.0
0.0006637091573909033 -0.00012380472958931839 0.0
0.0006730106771143553 -0.00012431153707056263 0.0
0.0006827379888611643 -0.0001247530308812777 0.0
0.000692998732324322 -0.00012506664534782386 0.0
0.0007029502031240235 -0.00012542659064266676 0.0
0.0007125498853853535 -0.0001258613892431167 0.0
0.0007223310829314162 -0.00012616286201414038 0.0
0.0007320831679131997 -0.00012655825788007862 0.0
0.000741421107574961 -0.00012704402868001283 0.0
0.0007509839293564074 -0.00012777954003762165 0.0
0.000760217807892493 -0.00012869764995737573 0.0
0.0007694048770030348 -0.0001295875323440512 0.0
0.0007786805660393868 -0.00013043577916744623 0.0
0.000787098533531552 -0.000131289406410583 0.0
0.0007961034942701623 -0.00013197354977498342 0.0
0.0008053468630415951 -0.00013271686401603605 0.0
0.0008154776124463608 -0.0001332397403820112 0.0
0.0008259154427646973 -0.00013376943646217556 0.0
0.0008366976982393851 -0.0001342347582252992 0.0
0.0008467819852959263 -0.00013378551985072858 0.0
0.0008563308047284385 -0.00013236629875749877 0.0
0.0008656753533088971 -0.00012960668471337323 0.0
0.0008762627261888895 -0.00012592208160864065 0.0
0.0008865115418052595 -0.0001236521983584332 0.0
0.0008972410412059807 -0.00012164667145362848 0.0
0.0009079468546155247 -0.00011962592287077914 0.0
0.0009180802961262312 -0.00011780546149178504 0.0
0.000928790707726375 -0.00011577249584094698 0.0
0.0009405286128858711 -0.00011289521002460733 0.0
0.0009517887135817295 -0.0001089640475192147 0.0
0.0009633984785687264 -0.00010411658318439348 0.0
0.0009749986553109354 -9.840790341250546e-5 0.0
0.0009883055692181749 -9.128820750950353e-5 0.0
0.0010028322147377874 -8.163765631820499e-5 0.0
0.001017944411735679 -6.880387434007468e-5 0.0
0.001037709578829562 -5.3019226154544766e-5 0.0
0.0010612877914691326 -3.288085114876906e-5 0.0
0.0011000000012864452 1.833517484096375e-12 0.0
0.0010999999974304583 -2.90858001141955e-12 0.0
0.001099999999465015 9.97972503789895e-13 0.0
0.0010999999989267381 4.150975321498816e-13 0.0
0.0010999999992898004 7.616324708522583e-13 0.0
0.0010999999992083328 8.137643551879387e-13 0.0
0.0010999999992531244 7.081725280830547e-13 0.0
0.00109999999929986 7.019590846090038e-13 0.0
0.00109999999931655 7.484022750478079e-13 0.0
0.0010999999993711591 8.116290690249239e-13 0.0
0.0010999999993890138 9.079379965860783e-13 0.0
0.0010999999994283907 9.99593656361562e-13 0.0
0.001099999999407751 1.0655926575303756e-12 0.0
0.0010999999994076816 1.1154449946544618e-12 0.0
0.0010999999993935173 1.1416242060698192e-12 0.0
0.0010999999993768143 1.154310503049336e-12 0.0
0.0010999999993460755 1.1470798017161565e-12 0.0
0.0010999999993810323 1.1652535110684881e-12 0.0
0.001099999999359996 1.1815673289632772e-12 0.0
0.0010999999994340062 1.094247029400187e-12 0.0
0.0010999999994654476 1.0445064633981581e-12 0.0
0.0010999999994758228 9.52575210537013e-13 0.0
0.001099999999620687 9.483635096125635e-13 0.0
0.0010999999998507928 1.1333947997219722e-12 0.0
0.0010999999997469885 9.31437282119033e-13 0.0
0.0010292529293951403 1.6813277116592575e-5 0.0
0.0009622258602761637 2.315347605538313e-5 0.0
0.0009026217689029411 2.5119133652441658e-5 0.0
0.0008585750548176038 2.7257654827273545e-5 0.0
0.0008228958050122478 -9.48840297633e-6 0.0
0.0008212674632303105 -3.600658891206832e-5 0.0
0.0008202784340399774 -6.194764990480573e-5 0.0
0.0008164735923167887 -8.146322607511928e-5 0.0
0.0008108044489108933 -9.575155335180444e-5 0.0
0.0008027232182779237 -0.00010564410094422022 0.0
0.0007928781141278131 -0.00011117820797233464 0.0
0.0007808222818994702 -0.00011227925770870247 0.0
0.0007680357958835783 -0.00011209109939748767 0.0
0.0007534601886924638 -0.0001102868972076372 0.0
0.0007344469760017058 -0.00010563146088431496 0.0
0.0007113864387280629 -9.42886014163529e-5 0.0
0.00065474366174148 -3.1431687608799005e-5 0.0
0.000639466674977342 -1.3120428929841081e-5 0.0
0.000626072080393023 1.5922978302125773e-6 0.0
0.0006136924938160198 1.5299360088418847e-5 0.0
0.0006020768478042308 2.7912881892285523e-5 0.0
0.0005921723016549124 4.0675657684983425e-5 0.0
0.0005832157229482012 5.4782857017857836e-5 0.0
0.0005755568617618787 6.961061286926564e-5 0.0
0.0005701726723436315 9.084150199536908e-5 0.0
0.0005644999248744669 0.00011444577585205368 0.0
0.0005630320260188434 0.00014465988933870188 0.0
0.0005560215416859112 0.00018815616810232674 0.0
0.00047803761045870095 0.00025948468541317157 0.0
0.00039471742771185876 0.0002585468524197049 0.0
0.0003196301978585435 0.0002409807838245827 0.0
0.00023736425827158316 0.00018477500250919666 0.0
0.0003093772172841772 -8.171756635791344e-5 0.0
0.000737441341369749 -0.00012122869913767035 0.0
0.00038025947080122974 -9.68865075544414e-5 0.0
0.000668447083575643 -0.00011904722502717224 0.0
0.00044562099645897613 -0.00010932171435298443 0.0
0.0006044372078940754 -0.00011508398269866767 0.0
0.0005156748441578097 -0.00011005357589751919 0.0
0.0007927297345096371 -0.00012514338189023737 0.0
0.00024288626914234886 -6.921532217036902e-5 0.0
0.000841126502413993 -0.000123864901465651 0.0
0.00018714578770572112 -5.449359668155258e-5 0.0
2.4843181884814097e-5 -4.494435951667764e-6 0.0
0.0010664999850678745 6.367585003711002e-7 0.0
0.0006908962265045343 -6.804068896967698e-5 0.0
0.0007619617900586849 -0.00010546022429718911 0.0
0.0006288701762766067 -3.737666205553567e-5 0.0
0.000582273715845971 2.6028549397924624e-5 0.0
0.0008931454554934506 -0.0001124369941384148 0.0
0.00013935463952259353 -3.921095108462499e-5 0.0
1.794059089263007e-5 -3.2810134399032985e-6 0.0
0.0010762717635159859 -4.5244680044883137e-7 0.0
0.0010535611172923626 7.158804075608915e-7 0.0
2.9831191102908945e-5 -4.080265097393578e-6 0.0
0.0009363554608100401 -9.969557622701183e-5 0.0
9.941980322647844e-5 -2.7207913004469145e-5 0.0
0.000800160695918983 -9.499661668038263e-5 0.0
0.0005458875411914755 6.38929166973981e-5 0.0
1.3360573045921151e-5 -2.7337296920708813e-6 0.0
0.0010803240284106717 -7.770123684705766e-7 0.0
0.00041649067473776435 -0.00010755549691766774 0.0
0.00047896533541452036 -0.0001101436961772531 0.0
0.000640756770135533 -0.0001174294933694657 0.0
0.0005601963341889829 -0.00011129540451975397 0.0
0.0006983806397669615 -0.00012035954836627026 0.0
0.0007637168101581882 -0.00012289106170365965 0.0
0.00035519680986402454 -8.996617072228117e-5 0.0
0.00027709319528700544 -7.640234643067045e-5 0.0
0.0009710031793538852 -8.402249758974799e-5 0.0
6.88535339535727e-5 -1.8527678229606677e-5 0.0
0.0010490824228650466 -1.2980990692642688e-7 0.0
3.725861157492003e-5 -1.4508638333889234e-6 0.0
0.0010832383676649142 -1.1675137011813244e-6 0.0
1.2198089811222223e-5 -2.595351652615269e-6 0.0
0.0008238488744460782 -6.853524644856949e-5 0.0
0.000526778210351308 0.00010287985840772452 0.0
0.0010389310454556463 -1.1351061108399783e-6 0.0
5.668509946478375e-5 3.044486974848157e-7 0.0
2.146886339307583e-5 -3.886740669260609e-6 0.0
0.0010715177607936034 1.7675866946918737e-7 0.0
0.0007315923304993888 -9.828032233162342e-5 0.0
0.0006063323872322418 -1.1508393973091532e-6 0.0
3.74195012559228e-5 -9.451671165548885e-6 0.0
0.0010194822047215172 -5.226140084056119e-5 0.0
0.000717426176219131 -0.00012139746282569062 0.0
0.0005850050882538907 -0.00011404995662541616 0.0
0.00039938878438773817 -0.00010491956730798832 0.0
0.00033214943892237924 -8.629424046353324e-5 0.0
0.0006232712213904602 -0.00011615490407052883 0.0
0.0008101658196130932 -0.0001256355938366579 0.0
0.00022024046177233965 -6.363431631294432e-5 0.0
0.0008632384454122573 -0.00012092149042871571 0.0
0.00016559095627291303 -4.7279207555059815e-5 0.0
0.00011871994764390544 -3.283314564605678e-5 0.0
0.0009140765052324359 -0.00010685085821238605 0.0
0.00035081809115624827 0.00015040756897204813 0.0
0.0009247045497506954 -2.3911629681808877e-7 0.0
0.0010822693037101925 -3.42825198751744e-6 0.0
1.0116478985937853e-5 -2.092334794690021e-6 0.0
0.0005103753465767365 0.0001618363244599783 0.0
0.0008372160991824638 -2.3771246201415988e-5 0.0
7.623636884231632e-5 1.1998178651013148e-5 0.0
0.0010490971344268845 1.5471858482586029e-6 0.0
1.6351314016019614e-5 -3.736426052031695e-6 0.0
0.0010589650295253245 -2.1173230162720055e-5 0.0
0.0008807251731880517 -4.430139996083254e-7 0.0
0.000889973130413478 -1.8728849516597497e-5 0.0
0.0009397548055926574 -1.0977737675811118e-5 0.0
0.0009015546893355858 -2.3234327393662085e-5 0.0
0.0008637187577711065 -3.685881788466223e-5 0.0
0.0008666028543857092 -3.622701837308634e-5 0.0
0.0009033527279980806 -2.2627768051011373e-5 0.0
0.0008680343593433669 -3.060693230798456e-5 0.0
0.0009068829556546159 -1.887131624755928e-5 0.0
0.0008721393074767699 -2.3523133761898176e-5 0.0
0.0008372708474718283 -3.584954331888396e-5 0.0
0.000839892253548969 -2.6349157804417907e-5 0.0
0.000810234195289717 -3.677853359132242e-5 0.0
0.0008116885865926038 -2.7368570745095533e-5 0.0
0.0007857076507270767 -3.571532494514761e-5 0.0
0.0007873334839858761 -2.549332948931169e-5 0.0
0.0006804131756799153 -5.304833063448202e-5 0.0
0.0006641312919461874 -5.61787692883438e-5 0.0
0.0006681057374693812 -4.869009173997817e-5 0.0
0.0006534643075647961 -5.3558460344630347e-5 0.0
0.0006570654541699789 -4.626736763162246e-5 0.0
0.0006437844436148055 -5.030596981733302e-5 0.0
0.0006470248284838177 -4.308440874369228e-5 0.0
0.0006343083792356299 -4.7156799701076376e-5 0.0
0.0006380242102592974 -4.069013596059871e-5 0.0
0.0006251890123541568 -4.538994199760784e-5 0.0
0.0006297784523693696 -3.957008722983088e-5 0.0
0.0006172824410740559 -4.33918525736418e-5 0.0
0.0006223664399383731 -3.8159179169351676e-5 0.0
0.000610437652005002 -4.104250829900003e-5 0.0
0.0006156905767866089 -3.6162625209241004e-5 0.0
0.0006038509107824115 -3.8809292919523544e-5 0.0
0.0006096713157528498 -3.457724344066141e-5 0.0
0.0005973891825660068 -3.747358846404349e-5 0.0
0.0006039566309771096 -3.347398687419193e-5 0.0
0.000591885840095926 -3.566027090506614e-5 0.0
0.0005987564588607716 -3.1980428663553915e-5 0.0
0.0005867934650517667 -3.401397477642322e-5 0.0
0.0005935723459301527 -3.073756221037621e-5 0.0
0.0005819175562659706 -3.27103333683493e-5 0.0
0.0005889127617220254 -2.981268647107055e-5 0.0
0.0005776411607205855 -3.1659996214248874e-5 0.0
0.0005844937379936682 -2.8893955568828772e-5 0.0
0.0005729991759041397 -3.0949891872330666e-5 0.0
0.0005801542844145831 -2.826939457649671e-5 0.0
0.0005662532902832318 -3.0849796371165514e-5 0.0
0.0005765936483366962 -2.7831031091492118e-5 0.0
0.0005644655211657636 -2.9566967087713338e-5 0.0
0.0005728090619624202 -2.7402546272673892e-5 0.0
0.0005610496157397672 -2.9143327377217636e-5 0.0
0.000569313041585897 -2.7283016033674276e-5 0.0
0.0005581335336258221 -2.8928620942970204e-5 0.0
0.0005659063055055125 -2.73518283150605e-5 0.0
0.0005548759529868146 -2.8916120562465544e-5 0.0
0.0006158002238604264 -5.0813820257437734e-5 0.0
0.0005626632655990328 -2.761537417955957e-5 0.0
0.0005841143554616 -3.959881384147324e-5 0.0
0.0005534611004844188 -3.2069902209438784e-5 0.0
0.0005510180858169444 -2.93068545161125e-5 0.0
0.0005594909105070645 -2.81435919223082e-5 0.0
0.000547232382989408 -2.9896056506078577e-5 0.0
0.0005389582288845901 -3.1005450384932744e-5 0.0
0.0005347504366316152 -3.1627549299782086e-5 0.0
0.0005558964631405782 -2.8929628643073358e-5 0.0
0.000568206368679533 -2.716039795509485e-5 0.0
0.0005839292736047689 -2.5861765256231632e-5 0.0
0.0005649019193274022 -2.8163029898882643e-5 0.0
0.000577942363665427 -2.6262182182656324e-5 0.0
0.0005743629627061948 -2.7617017069468767e-5 0.0
0.0005265084292940917 -3.2704533947221646e-5 0.0
0.0005227498828313606 -3.3257825749928996e-5 0.0
0.0005876956572735255 -2.56407722679621e-5 0.0
0.0005136972563013478 -3.440124655125984e-5 0.0
0.0005104885777086146 -3.488542475940702e-5 0.0
0.0005846011719609429 -2.7221198620577697e-5 0.0
0.0005972246338228183 -2.5359646705033704e-5 0.0
0.0005005647540905194 -3.6069075637349726e-5 0.0
0.0004970854214129842 -3.6549928207775566e-5 0.0
0.0005946720641006351 -2.7141451277394827e-5 0.0
0.0006073883204617973 -2.520446239525242e-5 0.0
0.00048727985761870904 -3.7609099086935534e-5 0.0
0.0004835765266495601 -3.8257416391959646e-5 0.0
0.0006049648777841019 -2.731094916107237e-5 0.0
0.0006177848320548262 -2.5222543885757276e-5 0.0
0.0004739984027324473 -3.9168433861406344e-5 0.0
0.0004695419144413344 -3.986721839026115e-5 0.0
0.0006156329877924282 -2.7591858120732574e-5 0.0
0.0006282474193542017 -2.5375998451179245e-5 0.0
0.000459513879005038 -4.063970232292851e-5 0.0
0.00045539681334743774 -4.135209721535464e-5 0.0
0.000444442588578848 -4.199627592104276e-5 0.0
0.000448699358765136 -4.1480823338299864e-5 0.0
0.0006017819406886639 -2.9596324473061496e-5 0.0
0.0006261108368167715 -2.8085115338887383e-5 0.0
0.0006387961765896087 -2.5682677571821298e-5 0.0
0.0006412631683537907 -2.286328921580643e-5 0.0
0.0006041154096619043 -2.877188707175454e-5 0.0
0.000652135186970866 -2.302245345706773e-5 0.0
0.0006548461925749955 -2.0134501878833682e-5 0.0
0.0006660236107114673 -2.0101964271159783e-5 0.0
0.0004413944329530317 -4.27896225580705e-5 0.0
0.0004300891309800381 -4.3152222909201896e-5 0.0
0.0004521671432723164 -4.2368445748891674e-5 0.0
0.0006363492792825565 -2.8792400971383597e-5 0.0
0.00042737998236523915 -4.400489260754513e-5 0.0
0.00041581449386931445 -4.407259687510924e-5 0.0
0.0006269159611828016 -3.3270502844525355e-5 0.0
0.000413388527736813 -4.488964209641127e-5 0.0
0.0004014173651603056 -4.465130804288781e-5 0.0
0.0003992290497758665 -4.553216689864897e-5 0.0
0.00038701657150159535 -4.494747004792605e-5 0.0
0.0003887854774534403 -4.4297173916688145e-5 0.0
0.00037260097211285257 -4.436914617044288e-5 0.0
0.0003745846088795234 -4.377398497760854e-5 0.0
0.0003833346871307752 -4.5905860897239817e-5 0.0
0.00035652648306591054 -4.350564422841371e-5 0.0
0.00035834056495701836 -4.31068553474033e-5 0.0
0.00039720372010763465 -4.67727595480454e-5 0.0
0.00038363094017724464 -4.733284634586657e-5 0.0
0.00034018334167671766 -4.2493148302030874e-5 0.0
0.00034118690277800285 -4.221115606786445e-5 0.0
0.0006691197353814983 -1.7311951648799203e-5 0.0
0.0006807488344658979 -1.716701353088585e-5 0.0
0.00039526752125267084 -4.832403305998637e-5 0.0
0.0003820558566933433 -4.8878251286551614e-5 0.0
0.0006840175160642305 -1.4432648192052687e-5 0.0
0.0006962676433961227 -1.4229972501711099e-5 0.0
0.0006924044461237988 -1.7522768693185476e-5 0.0
0.0007082893233528885 -1.4364607760646e-5 0.0
0.0007047782564624289 -1.8083837895625238e-5 0.0
0.0007211000948656766 -1.4618304225606795e-5 0.0
0.000718457978615911 -1.8596401502197252e-5 0.0
0.0007358133578024815 -1.4657974224838423e-5 0.0
0.0007318449849598576 -1.9011781935713957e-5 0.0
0.000738285169135068 -1.1212780687427107e-5 0.0
0.0007498507642691746 -1.5066340609161706e-5 0.0
0.0007451166684549834 -1.9817395296560862e-5 0.0
0.000393616437742008 -5.009833988291597e-5 0.0
0.00032140855891789116 -4.1252095470606915e-5 0.0
0.00032189032557651347 -4.098622472017547e-5 0.0
0.000728455036129227 -2.4269637775737144e-5 0.0
0.0007412752725538273 -2.5384955687636734e-5 0.0
0.0007581709279919901 -2.0728822598154305e-5 0.0
0.0007258244577124025 -3.016417713036952e-5 0.0
0.00038086953668245053 -5.0660463668716966e-5 0.0
0.000754405048223315 -2.6746398152979785e-5 0.0
0.0007714238412919794 -2.17461739994908e-5 0.0
0.00039205072772742467 -5.211446313031918e-5 0.0