# vtk DataFile Version 2.0
phase field modeling fracture
ASCII
DATASET UNSTRUCTURED_GRID
POINTS 2538 float
0.0 0.0 0.0
10.0 0.0 0.0
0.0 10.0 0.0
10.0 10.0 0.0
0.0 4.9995 0.0
0.0 5.0005 0.0
5.0 5.0 0.0
0.9416964895726688 0.0 0.0
1.803581725054446 0.0 0.0
2.592419885431098 0.0 0.0
3.314401822861676 0.0 0.0
3.975193910351406 0.0 0.0
4.579982132660152 0.0 0.0
5.133512780936812 0.0 0.0
5.640130319506143 0.0 0.0
6.103810708661955 0.0 0.0
6.528192895506818 0.0 0.0
6.916607540127679 0.0 0.0
7.272102969376355 0.0 0.0
7.597469242948583 0.0 0.0
7.895259826292669 0.0 0.0
8.167811885738017 0.0 0.0
8.417264413845215 0.0 0.0
8.645575169389538 0.0 0.0
8.854535961159101 0.0 0.0
9.045786767735546 0.0 0.0
9.220828555767493 0.0 0.0
9.38103509633881 0.0 0.0
9.527663687265145 0.0 0.0
9.661865124984566 0.0 0.0
9.784692609918062 0.0 0.0
9.897110148790482 0.0 0.0
10.0 0.09999999999992584 0.0
10.0 0.199999999999856 0.0
10.0 0.2999999999997771 0.0
10.0 0.3999999999996677 0.0
10.0 0.4999999999995511 0.0
10.0 0.5999999999994683 0.0
10.0 0.6999999999993983 0.0
10.0 0.7999999999993286 0.0
10.0 0.8999999999992587 0.0
10.0 0.9999999999991888 0.0
10.0 1.099999999999119 0.0
10.0 1.199999999999033 0.0
10.0 1.299999999998852 0.0
10.0 1.399999999998576 0.0
10.0 1.499999999998284 0.0
10.0 1.599999999997992 0.0
10.0 1.6999999999977 0.0
10.0 1.799999999997408 0.0
10.0 1.899999999997116 0.0
10.0 1.999999999996825 0.0
10.0 2.099999999996533 0.0
10.0 2.199999999996241 0.0
10.0 2.299999999995949 0.0
10.0 2.399999999995657 0.0
10.0 2.499999999995365 0.0
10.0 2.599999999995073 0.0
10.0 2.699999999994782 0.0
10.0 2.79999999999449 0.0
10.0 2.899999999994198 0.0
10.0 2.999999999993906 0.0
10.0 3.099999999993614 0.0
10.0 3.199999999993322 0.0
10.0 3.299999999993029 0.0
10.0 3.399999999992738 0.0
10.0 3.499999999992446 0.0
10.0 3.599999999992154 0.0
10.0 3.699999999991863 0.0
10.0 3.799999999991571 0.0
10.0 3.899999999991278 0.0
10.0 3.999999999991022 0.0
10.0 4.099999999991035 0.0
10.0 4.199999999991187 0.0
10.0 4.299999999991338 0.0
10.0 4.399999999991491 0.0
10.0 4.499999999991642 0.0
10.0 4.599999999991795 0.0
10.0 4.699999999991947 0.0
10.0 4.799999999992099 0.0
10.0 4.89999999999225 0.0
10.0 4.999999999992403 0.0
10.0 5.099999999992555 0.0
10.0 5.199999999992706 0.0
10.0 5.299999999992858 0.0
10.0 5.39999999999301 0.0
10.0 5.499999999993161 0.0
10.0 5.599999999993313 0.0
10.0 5.699999999993466 0.0
10.0 5.799999999993618 0.0
10.0 5.899999999993771 0.0
10.0 5.999999999993922 0.0
10.0 6.099999999994074 0.0
10.0 6.199999999994227 0.0
10.0 6.299999999994378 0.0
10.0 6.39999999999453 0.0
10.0 6.499999999994682 0.0
10.0 6.599999999994833 0.0
10.0 6.699999999994986 0.0
10.0 6.799999999995138 0.0
10.0 6.899999999995289 0.0
10.0 6.999999999995442 0.0
10.0 7.099999999995594 0.0
10.0 7.199999999995747 0.0
10.0 7.299999999995897 0.0
10.0 7.39999999999605 0.0
10.0 7.499999999996202 0.0
10.0 7.599999999996353 0.0
10.0 7.699999999996505 0.0
10.0 7.799999999996658 0.0
10.0 7.899999999996808 0.0
10.0 7.999999999996962 0.0
10.0 8.099999999997113 0.0
10.0 8.199999999997265 0.0
10.0 8.299999999997418 0.0
10.0 8.399999999997569 0.0
10.0 8.499999999997721 0.0
10.0 8.599999999997873 0.0
10.0 8.699999999998024 0.0
10.0 8.799999999998176 0.0
10.0 8.899999999998329 0.0
10.0 8.99999999999848 0.0
10.0 9.099999999998634 0.0
10.0 9.199999999998786 0.0
10.0 9.299999999998937 0.0
10.0 9.399999999999089 0.0
10.0 9.499999999999241 0.0
10.0 9.599999999999392 0.0
10.0 9.699999999999545 0.0
10.0 9.799999999999697 0.0
10.0 9.899999999999848 0.0
9.897110148790565 10.0 0.0
9.784692609918244 10.0 0.0
9.66186512498486 10.0 0.0
9.527663687265571 10.0 0.0
9.381035096339392 10.0 0.0
9.220828555768257 10.0 0.0
9.045786767736512 10.0 0.0
8.854535961160305 10.0 0.0
8.645575169391027 10.0 0.0
8.417264413847017 10.0 0.0
8.167811885740178 10.0 0.0
7.895259826295246 10.0 0.0
7.597469242951631 10.0 0.0
7.272102969379938 10.0 0.0
6.916607540131873 10.0 0.0
6.528192895511704 10.0 0.0
6.103810708667616 10.0 0.0
5.640130319512691 10.0 0.0
5.13351278094435 10.0 0.0
4.579982132668816 10.0 0.0
3.975193910361222 10.0 0.0
3.314401822869852 10.0 0.0
2.592419885437257 10.0 0.0
1.803581725058137 10.0 0.0
0.9416964895740705 10.0 0.0
0.0 9.00010000000243 0.0
0.0 8.000200000005481 0.0
0.0 7.000300000005135 0.0
0.0 6.000400000002569 0.0
0.901790731451151 5.000409820926855 0.0
1.657200899774397 5.000334279910023 0.0
2.289991063707192 5.000271000893629 0.0
2.820065163538221 5.000217993483646 0.0
3.264096435579811 5.000173590356442 0.0
3.636051481595835 5.00013639485184 0.0
3.947629914072366 5.000105237008593 0.0
4.208632181002628 5.0000791367819 0.0
4.427267949625672 5.000057273205037 0.0
4.610414277633563 5.000038958572237 0.0
4.763831845154243 5.000023616815485 0.0
4.892346298799659 5.00001076537012 0.0
4.892346298799748 4.99998923462988 0.0
4.763831845154455 4.999976383184515 0.0
4.610414277633943 4.999961041427763 0.0
4.427267949626277 4.999942726794963 0.0
4.208632181003523 4.9999208632181 0.0
3.94762991407365 4.999894762991407 0.0
3.636051481597624 4.99986360514816 0.0
3.264096435582253 4.999826409643559 0.0
2.820065163541503 4.999782006516354 0.0
2.289991063711534 4.999728999106371 0.0
1.657200899778495 4.999665720089978 0.0
0.9017907314530094 4.999590179073145 0.0
0.0 3.999600000002013 0.0
0.0 2.999700000005187 0.0
0.0 1.99980000000512 0.0
0.0 0.9999000000025537 0.0
9.897889398521345 2.93573355845387 0.0
9.906568249974548 7.060009441434234 0.0
9.913122631074113 3.64016132281653 0.0
9.922462129543863 6.354535290629151 0.0
9.917693659967533 4.354211663134567 0.0
9.909873057440208 5.637584487339942 0.0
9.914183254994697 4.950672966925282 0.0
9.913885043715895 7.666887930262611 0.0
9.91009668007573 2.351889069770817 0.0
9.905135696074536 8.138152454502785 0.0
9.913397459621809 1.849999999997262 0.0
7.099302372137626 0.297750452375005 0.0
7.095143729410097 9.700359990366296 0.0
4.942912558701401 5.095838627899509 0.0
4.315009232304429 5.165022115481685 0.0
4.946182472483878 4.906763777264103 0.0
4.317967462990024 4.825955043772673 0.0
9.916390871492647 8.64999999999792 0.0
9.921504649680616 1.368376469890358 0.0
8.292538149791614 0.206877570318844 0.0
8.292538149793597 9.793122429681448 0.0
5.884594439766573 9.587645267048616 0.0
5.794826292691579 0.3794853783929359 0.0
9.913397459621425 9.049999999998557 0.0
9.908526577714177 0.9568239351922434 0.0
3.456851160380649 5.315740054130451 0.0
3.457889657868442 4.707121019609468 0.0
8.945214200703926 0.1503383337970344 0.0
8.950161364448409 9.8413906539257 0.0
9.913862335499305 4.055887885208452 0.0
9.916697353372683 4.650158482607802 0.0
9.919076340414442 6.049999999994006 0.0
9.906994308667635 5.25749687748192 0.0
9.917490342358025 6.655979201891897 0.0
9.915757520293784 7.343848891656911 0.0
9.910049507471042 3.363474386285078 0.0
9.914471988502868 2.647400064832979 0.0
9.91474124160965 9.337490423485129 0.0
9.916971008170838 0.6499999999994355 0.0
4.307157269264427 9.509674045029644 0.0
4.331527375865619 0.4401616696422582 0.0
9.45434939180249 9.878397030523757 0.0
9.457696120412969 0.1270877537061785 0.0
2.555070293622606 5.422044496190925 0.0
2.566232917480916 4.608001224030952 0.0
3.026511860837692 9.332320638257093 0.0
2.945561971800619 0.5895662714727601 0.0
7.7395404387124 0.2511088946967771 0.0
7.736379255744154 9.745848826372828 0.0
4.687135269408529 5.122111433928926 0.0
4.688420821504113 4.871895064967488 0.0
9.910554884115975 0.3448356354522978 0.0
9.911230082250466 9.65764729394159 0.0
9.921953841410854 6.851023993342036 0.0
9.912065178606017 5.448170483544033 0.0
9.911660025326261 3.861846960030188 0.0
9.914847467973438 3.14501593945607 0.0
9.913397459621425 5.849999999993703 0.0
9.913397459621425 7.849999999996735 0.0
9.906916878988277 2.15455769998631 0.0
9.913397459621425 8.349999999997479 0.0
9.909472363117661 1.640528221515488 0.0
9.913987325695956 1.152857110636247 0.0
9.913397459621425 8.849999999998241 0.0
0.9100099990995943 2.614215977520411 0.0
0.8395284981715456 7.451196254860987 0.0
9.723278867451556 9.898135916635193 0.0
9.723316350887044 0.09841820909386662 0.0
1.385819164827588 4.454539963646463 0.0
1.338343629665047 5.523111536005823 0.0
1.377179700550677 0.6809168304959698 0.0
1.418060461092743 9.285896715136046 0.0
9.91268220142518 0.1457914080939694 0.0
9.906737126737994 9.845745933882352 0.0
0.7108351382691361 6.537941170074089 0.0
1.527735020267026 6.915620208855231 0.0
1.630993885659103 7.838271825205868 0.0
2.232760943566823 7.370850737296832 0.0
2.243414218068206 6.688299277952821 0.0
2.779655053105118 7.021588754814074 0.0
2.80227799359795 7.632420170547022 0.0
3.282022065908813 7.305859666021318 0.0
3.327597298795347 7.857554136825748 0.0
3.743210251018715 7.549183328204379 0.0
3.716353232200752 7.062036086888612 0.0
4.111978858674101 7.27497101169417 0.0
4.104192177581432 6.879858986267289 0.0
4.436230765617037 7.045693351607117 0.0
4.430360014817357 6.703971783962796 0.0
4.732390145036301 6.849841042423394 0.0
5.056161327708878 5.095276573498806 0.0
5.111586796021131 4.999081142133581 0.0
5.169267363407189 5.09444870412406 0.0
5.223795108752053 4.996986220359468 0.0
5.281480803887719 5.092780870372803 0.0
5.335670761900611 4.994887492556936 0.0
5.393485214772442 5.090486192743301 0.0
5.447323082877892 4.992601527033996 0.0
5.505243219343024 5.087953380710069 0.0
5.558739102026105 4.990287787962959 0.0
5.616491581184779 5.085335255235766 0.0
5.669852346908056 4.9879269227514 0.0
5.727502713908907 5.082679981817038 0.0
5.780766004135139 4.988313988715834 0.0
5.838244881129535 5.080480568766611 0.0
5.891357695677371 4.986433849408193 0.0
5.948696036767613 5.077969900389505 0.0
6.001601341641615 4.981313698556656 0.0
6.058851024265095 5.074871552128682 0.0
6.111614020704875 4.978360695880202 0.0
6.168801161530775 5.072044953270978 0.0
6.221368818778567 4.975825765213497 0.0
6.278268309066882 5.066182320461055 0.0
6.330814273567539 4.972837984645718 0.0
6.387565032421376 5.062889771971895 0.0
6.437476667631405 4.971693683589553 0.0
[...]
POINT_DATA 2538
VECTORS disp float
1.308519307427361e-11 2.2455255843885793e-11 0.0
7.834273697735388e-12 -1.853192092158428e-11 0.0
0.0017999999996468718 3.6999419994314874e-12 0.0
0.0017999999762313285 -5.571280685825844e-11 0.0
0.0007674283979857776 0.00035625827042066804 0.0
0.0013730159622316993 2.4012582472572233e-5 0.0
0.0009932808971058551 -2.8704296166838997e-5 0.0
-1.0700325747510452e-12 -3.5714429328391483e-12 0.0
2.198057563425373e-12 1.3002777333424102e-12 0.0
1.3490585975300644e-12 -8.62337218546217e-13 0.0
1.249840793658451e-12 -6.238653083293683e-13 0.0
6.959089806969139e-13 -5.962760056008529e-13 0.0
7.14583320402752e-13 -9.27926526120086e-13 0.0
5.364846783283985e-13 -1.0088802029072284e-12 0.0
4.4695518550003096e-13 -1.3549210474233868e-12 0.0
2.5808362720139203e-13 -1.6862055462488325e-12 0.0
4.4532908563367476e-13 -2.1482916050264365e-12 0.0
4.344381642922681e-13 -2.543173207868397e-12 0.0
5.383020521917323e-13 -2.9268672459709277e-12 0.0
6.408452428181311e-13 -3.285659737067173e-12 0.0
6.540724185797253e-13 -3.4495532406015547e-12 0.0
8.464568066297294e-13 -3.801741352986464e-12 0.0
8.342583973686383e-13 -3.862606512370561e-12 0.0
8.899701458556461e-13 -4.134831883176952e-12 0.0
1.0274921660163526e-12 -4.313368486570534e-12 0.0
1.0023617605978598e-12 -4.462603788440783e-12 0.0
1.0776199020678125e-12 -4.696543160927658e-12 0.0
1.1931046186726862e-12 -4.939674284809989e-12 0.0
1.310668652119329e-12 -5.234168627116247e-12 0.0
1.2428580394502042e-12 -5.608762565063236e-12 0.0
1.9511834716239186e-12 -6.674528978835478e-12 0.0
4.946088376246844e-13 -5.084660866791294e-12 0.0
2.5935947797212426e-5 -1.58146796392838e-5 0.0
4.568334664455297e-5 -2.7656410185149356e-5 0.0
6.511974825765325e-5 -3.814115167483277e-5 0.0
8.351375512974743e-5 -4.785728714967344e-5 0.0
0.00010097511829161319 -5.697684882893037e-5 0.0
0.00011792735361750068 -6.585942655565905e-5 0.0
0.0001347140919396887 -7.430388611682524e-5 0.0
0.00015103043893064625 -8.249815456727056e-5 0.0
0.00016707022033843542 -9.054531090520056e-5 0.0
0.0001829269904938509 -9.8339934697483e-5 0.0
0.00019853343971991118 -0.00010603882817327996 0.0
0.00021405430597449117 -0.00011357130513018674 0.0
0.00022943863121858697 -0.00012091516054834517 0.0
0.0002447717299612575 -0.00012819262426384855 0.0
0.0002600506436792914 -0.00013532541779499085 0.0
0.0002751200831831859 -0.0001422229308036603 0.0
0.00029017608166482053 -0.00014899202618730905 0.0
0.00030529120886048665 -0.0001555207682319069 0.0
0.00032036796965679475 -0.00016189131318758334 0.0
0.000335457266312891 -0.00016812705900386208 0.0
0.0003505705479574723 -0.000174232474640686 0.0
0.0003656924903799629 -0.0001802200344706468 0.0
0.00038093292801562025 -0.00018608561277418063 0.0
0.0003960833886510755 -0.00019182963703630383 0.0
0.00041141365129839034 -0.0001974443041023442 0.0
0.00042666123556934387 -0.00020293379809764223 0.0
0.0004419915437373546 -0.000208340751901691 0.0
0.00045734287089703386 -0.0002135558320748584 0.0
0.0004729003205332349 -0.00021867898966342956 0.0
0.0004883136871565818 -0.0002237283505609597 0.0
0.0005039074606888246 -0.00022864603393952048 0.0
0.0005195534919367053 -0.00023338231787555628 0.0
0.000535350206838023 -0.00023798746658573256 0.0
0.0005511510487806754 -0.00024227245610927744 0.0
0.0005672544728512605 -0.00024647995046442534 0.0
0.0005832486892409614 -0.0002504070347450264 0.0
0.0005992364057940625 -0.0002542229967544398 0.0
0.0006153474620693609 -0.00025772782610908703 0.0
0.0006314028810161247 -0.00026104428046691466 0.0
0.0006475321830899076 -0.00026419088088302015 0.0
0.0006637356939108292 -0.00026709748260243804 0.0
0.000680476927198606 -0.0002700288309410188 0.0
0.0006976189396577546 -0.00027277054825366456 0.0
0.0007149127867311307 -0.00027597063192577614 0.0
0.0007326140618754915 -0.00027872493747553166 0.0
0.0007500624373699401 -0.00028172353013837715 0.0
0.0007675039864932502 -0.0002848224962224986 0.0
0.0007854848055234691 -0.0002873782830899273 0.0
0.000802928861197745 -0.0002906178114406874 0.0
0.0008221711903876601 -0.0002932122849634351 0.0
0.0008415068113051526 -0.00029627025527087004 0.0
0.0008613750622973673 -0.00029952994931253715 0.0
0.0008803563185259434 -0.00030290398344650596 0.0
0.0008998342422571486 -0.0003058033091750088 0.0
0.0009176546941724894 -0.0003087376859186309 0.0
0.0009362778367312352 -0.0003115444924121015 0.0
0.0009540101746969414 -0.0003140637189688845 0.0
0.0009716763611481319 -0.0003158964267749745 0.0
0.000989230629851588 -0.00031748230278240387 0.0
0.0010068211569755792 -0.00031861496721538677 0.0
0.001024004479123921 -0.000319793781120878 0.0
0.0010412018933273369 -0.0003208054969004191 0.0
0.0010587852997961402 -0.0003218342918090896 0.0
0.0010765162233662088 -0.0003225142390647712 0.0
0.0010948501582495815 -0.0003231287272887296 0.0
0.0011141205881574742 -0.00032352805525920196 0.0
0.00113323439929827 -0.00032365904223400347 0.0
0.0011517148536113295 -0.00032373862805608686 0.0
0.0011691897904981578 -0.00032347183716112957 0.0
0.0011865805545826441 -0.00032252578100766657 0.0
0.0012034266500404788 -0.00032108788615885014 0.0
0.0012210750085389112 -0.0003191013677251943 0.0
0.00123807942234192 -0.00031664478802188607 0.0
0.001255160365814572 -0.00031372303037879244 0.0
0.0012734651498852952 -0.0003101376250783396 0.0
0.0012912599653773385 -0.0003064100311708579 0.0
0.0013092297671408422 -0.00030263523190683276 0.0
0.0013265214051850437 -0.0002983043999629037 0.0
0.00134426450955984 -0.0002933673313544063 0.0
0.0013612172512992885 -0.0002876290605906301 0.0
0.0013794963243830161 -0.0002818887789177518 0.0
0.0013968048273009907 -0.0002757465852483791 0.0
0.0014150714019022688 -0.00027016422367057017 0.0
0.0014337971653562798 -0.0002638730140861133 0.0
0.001451279806014781 -0.0002571443859805222 0.0
0.0014686428503650365 -0.00024998033510089925 0.0
0.0014866067059015095 -0.00024137567290003257 0.0
0.0015042990568315544 -0.0002315564407049225 0.0
0.001522124107922822 -0.0002210029672006451 0.0
0.0015407620476890148 -0.00020956639038454753 0.0
0.001560259112817667 -0.0001967500359053635 0.0
0.0015802197363972504 -0.00018274853370193588 0.0
0.0016008183541426585 -0.0001677875612093737 0.0
0.0016225832384358502 -0.00015168591202989066 0.0
0.0016460965293616087 -0.00013413674968005494 0.0
0.001671016993357051 -0.00011502762063667399 0.0
0.0016976672049295106 -9.387996645004566e-5 0.0
0.001727620513330796 -6.95490972982615e-5 0.0
0.0017598254050421125 -4.082116651560367e-5 0.0
0.0017999999989894585 -5.161746111569967e-12 0.0
0.0017999999955914366 -8.257849459374503e-12 0.0
0.0017999999983681087 -2.2028065516438345e-12 0.0
0.0017999999976991384 -2.028364324355373e-12 0.0
0.00179999999815318 -9.902914211776988e-13 0.0
0.001799999998160107 -4.0167681566777523e-13 0.0
0.0017999999981647616 -7.00326710759837e-14 0.0
0.0017999999983005644 1.517394559809679e-13 0.0
0.0017999999983009138 3.471285842034066e-13 0.0
0.0017999999983890661 4.3579401337968553e-13 0.0
0.001799999998450537 5.065513551913698e-13 0.0
0.0017999999985647995 6.323220121310464e-13 0.0
0.0017999999985761229 7.701730021832464e-13 0.0
0.0017999999986157021 9.533060146648654e-13 0.0
0.001799999998620306 1.143199342679275e-12 0.0
0.00179999999862388 1.36208192384237e-12 0.0
0.0017999999986220293 1.5661683680898932e-12 0.0
0.001799999998568105 1.829035818631352e-12 0.0
0.0017999999986775437 2.00052246036133e-12 0.0
0.0017999999986045606 2.176723727766581e-12 0.0
0.001799999998686658 2.2344564153626985e-12 0.0
0.0017999999986924166 2.1373596792685685e-12 0.0
0.0017999999989202209 1.9826260201906384e-12 0.0
0.0017999999993311498 2.1903684270744886e-12 0.0
0.0017999999995787744 1.5585906423115116e-12 0.0
0.0016862662033513055 3.703884847567043e-5 0.0
0.0015877281523477874 5.1456046703734836e-5 0.0
0.0015011080195066607 4.626500688815306e-5 0.0
0.001418862475357341 3.274525085537972e-5 0.0
0.0013665602839850234 -3.155220315058609e-5 0.0
0.0013595078154270918 -6.529386128276391e-5 0.0
0.0013523061565691675 -0.00010072259930666627 0.0
0.0013365993635284653 -0.00012219441243974073 0.0
0.0013140002985396642 -0.00013284984005762442 0.0
0.0012862740129334221 -0.00013498633840237792 0.0
0.0012547465958120936 -0.00013140561292101276 0.0
0.0012215229845631713 -0.00012100658604542225 0.0
0.0011862115229990535 -0.0001074153330801284 0.0
0.0011494905172426532 -9.171815552411963e-5 0.0
0.0011090499990846524 -7.410951743019109e-5 0.0
0.0010610348138588176 -5.488084759958408e-5 0.0
0.000950997196965215 1.2874356709778197e-5 0.0
0.0009198497216002604 3.594189898029483e-5 0.0
0.000893089013102447 5.3983094594668824e-5 0.0
0.000868860627524785 7.090762571166979e-5 0.0
0.0008460065846062203 8.739118341223938e-5 0.0
0.0008251214128472337 0.0001041135370435422 0.0
0.0008057034885345811 0.00012196297398410104 0.0
0.0007886120639619043 0.00013968564251515085 0.0
0.0007757756316628223 0.00016224782797770072 0.0
0.0007648513923255802 0.00018359997018811672 0.0
0.0007640236527981862 0.0002231003148314271 0.0
0.0007600182260216738 0.00026961594803482747 0.0
0.0006895156447100244 0.0003613165890250933 0.0
0.0005942601488368627 0.00035493031000949723 0.0
0.0004614309547796125 0.00030611450629571435 0.0
0.00027579979347014974 0.00020455354277013117 0.0
0.0004753828246494788 -0.00021195819728190635 0.0
0.0011981898158346161 -0.0003050550227955544 0.0
0.0005878657663959602 -0.00024294538833076547 0.0
0.001068362881088496 -0.0003105291732992968 0.0
0.0007051897781787101 -0.00026664409068984655 0.0
0.000941259553018737 -0.00029979856588855844 0.0
0.0008112770920606652 -0.00028218755947114843 0.0
0.0013061253534300437 -0.00028516547255493587 0.0
0.0003857037848028915 -0.0001818446545586155 0.0
0.0013903206178120999 -0.00025526586156253867 0.0
0.00030950159459971224 -0.00015163944966571982 0.0
3.060040839359267e-5 -7.846062010971913e-6 0.0
0.0017592043563554418 3.3676032845248027e-7 0.0
0.0010509628988137297 -2.6986527324994057e-5 0.0
0.001187644960974537 -9.827901451394346e-5 0.0
0.0009202099435934342 4.747314633276573e-6 0.0
0.0008296346491424632 8.834199520953598e-5 0.0
0.0014822014120357328 -0.00022074340491138922 0.0
0.00023646935973864263 -0.00011954539379929022 0.0
2.585948192290308e-5 -7.5498308438914e-6 0.0
0.0017704814503896982 -1.5485656325922636e-6 0.0
0.001742931626478838 3.5962346758678154e-6 0.0
3.552821731043896e-5 -3.3549729946945096e-6 0.0
0.0015574103147746952 -0.0001761957629385691 0.0
0.00017178894550177467 -8.740723939103359e-5 0.0
0.0012825836765937677 -0.00011616147932087526 0.0
0.0007611578110038579 0.0001373926370893249 0.0
2.0737466393962843e-5 -6.193398606878754e-6 0.0
0.0017763244156343491 -1.9862277712776114e-6 0.0
0.000655105511036692 -0.00025684214444094474 0.0
0.0007571319632833865 -0.0002754152202965718 0.0
0.0010148689780763828 -0.0003076858544577129 0.0
0.0008700356875830769 -0.0002895158438491545 0.0
0.0011249767928354802 -0.00031005924251149744 0.0
0.0012479296545036015 -0.0002986636114838197 0.0
0.0005433280658209681 -0.00023223734472496444 0.0
0.00043116093845425337 -0.00019854797969713725 0.0
0.001617173487385245 -0.000135316343215584 0.0
0.0001221581699254861 -6.26739840614849e-5 0.0
0.0017308363519695409 6.375829859322748e-6 0.0
5.0418594706701925e-5 2.0981914483540284e-6 0.0
0.0017808739515450145 -3.7429263290807734e-6 0.0
1.9439978571396016e-5 -6.234803748716116e-6 0.0
0.0013426814759645719 -9.991191773514694e-5 0.0
0.0007315197274323524 0.0001752151444165035 0.0
0.001710654092678247 6.081224592998436e-6 0.0
8.261444397203751e-5 6.758250500256127e-6 0.0
2.8848030551463495e-5 -8.231679040313996e-6 0.0
0.0017648544094933988 -9.559175610999206e-7 0.0
0.001119944816111677 -6.745578517004135e-5 0.0
0.0008771146538144038 5.3232677185773814e-5 0.0
6.842898547248008e-5 -3.385402555575909e-5 0.0
0.001696682077534498 -7.594338745580289e-5 0.0
0.0011610695569140798 -0.00031034435546913616 0.0
0.000906565363808953 -0.0002957148661477281 0.0
0.0006236562773146744 -0.0002503749865921211 0.0
0.0005086647137994611 -0.00022331794473305 0.0
0.000979483567196474 -0.0003042306272557195 0.0
0.0013389678684521062 -0.0002760803766208858 0.0
0.0003554697948868223 -0.0001700096924703147 0.0
0.0014278936889436417 -0.00024291262524681672 0.0
0.0002775010561373323 -0.00013755801628882297 0.0
0.00020281740271463412 -0.0001030473045183171 0.0
0.0015189848990066505 -0.00019996267307696464 0.0
0.0005099932360398394 0.0001925980759949229 0.0
0.00152463487614458 5.02060927693476e-6 0.0
0.0017804580993072965 -7.749890252882292e-6 0.0
1.6448414852842473e-5 -5.810541115053925e-6 0.0
0.0007200420410673918 0.00024030562851041736 0.0
0.0013769934186581415 -4.598794482424346e-5 0.0
0.00011080206551908824 1.634790329932486e-5 0.0
0.0017214196882332862 6.519056544334155e-6 0.0
2.996408665300172e-5 -1.374476821046253e-5 0.0
0.0017541990653380851 -3.173816691658619e-5 0.0
0.0014501706238473373 -7.0702534502341e-6 0.0
0.0014562200998735001 -2.3505259276706936e-5 0.0
0.001547329070220869 -5.434828895611958e-6 0.0
0.0014775921455570163 -1.904898181232177e-5 0.0
0.0014072774934381484 -4.222456176330787e-5 0.0
0.0014156538687553279 -2.8906028355527413e-5 0.0
0.0014881953400505993 -1.0151691619504985e-5 0.0
0.0014287626937019337 -1.2891020629980818e-5 0.0
0.0015026429188378942 1.553988230958637e-7 0.0
0.0014470698419284977 1.3935306980303624e-6 0.0
0.001379037818444621 -1.1275836285639534e-5 0.0
0.0013957822583195332 4.321163525874209e-6 0.0
0.0013376998998979868 -5.33905570564773e-6 0.0
0.001351577397633488 8.085620751016905e-6 0.0
0.001299951852143121 1.1608936102150893e-6 0.0
0.001313486553873592 1.2306590212746014e-5 0.0
0.00103163358102699 -3.0997351643819716e-5 0.0
0.0009806671442311764 -4.1731696652473445e-5 0.0
0.001012648506912682 -3.757072759843352e-5 0.0
0.0009688279103807589 -4.8264890823058085e-5 0.0
0.0009979679961463262 -4.4565403195973615e-5 0.0
0.0009591194871405802 -5.363002005489177e-5 0.0
0.0009852066637824897 -4.944664440897451e-5 0.0
0.0009496706537111572 -5.767825063363616e-5 0.0
0.0009735778742829027 -5.330948080044596e-5 0.0
0.0009405701260302784 -6.109255996549489e-5 0.0
0.000962955982816133 -5.659070971505328e-5 0.0
0.0009320056333587876 -6.388770828401943e-5 0.0
0.0009532879197965721 -5.979188963497188e-5 0.0
0.0009247061573623266 -6.617885621503831e-5 0.0
0.000944354380931924 -6.215136715937077e-5 0.0
0.0009170045119081257 -6.830937626373641e-5 0.0
0.0009359072183530506 -6.447537533201636e-5 0.0
0.0009089111179692659 -7.050688884329605e-5 0.0
0.0009279451998212026 -6.68136878295736e-5 0.0
0.0009019246745171042 -7.23051047562553e-5 0.0
0.0009206409120459424 -6.891230446386701e-5 0.0
0.0008953847696687432 -7.411137417120848e-5 0.0
0.0009130572244506741 -7.103687346961611e-5 0.0
0.0008889191484219734 -7.609960487408561e-5 0.0
0.0009063719476192246 -7.335655508062948e-5 0.0
0.0008832952754053927 -7.818145233873011e-5 0.0
0.0009000700507083748 -7.576246771039022e-5 0.0
0.0008766697639228055 -8.060071606613036e-5 0.0
0.0008937996994614965 -7.845544492852637e-5 0.0
0.0008659411492676112 -8.404544200540966e-5 0.0
0.0008891010002354009 -8.121174058988875e-5 0.0
0.0008651365051140313 -8.602122836468012e-5 0.0
0.0008835366590365703 -8.426230497529007e-5 0.0
0.000860709805922211 -8.898416279359226e-5 0.0
0.0008784954031258475 -8.761253279377191e-5 0.0
0.0008571463649437588 -9.204171183685779e-5 0.0
0.0008735985970781921 -9.11318711798253e-5 0.0
0.0008527852673924114 -9.550623803882346e-5 0.0
0.0009168611752444836 -6.321776905470248e-5 0.0
0.0008688854079975733 -9.492352228074698e-5 0.0
0.0008824965465264805 -7.532057886076887e-5 0.0
0.0008426297325847805 -8.900825145856552e-5 0.0
0.0008471592779250756 -9.941276030959708e-5 0.0
0.0008642487111783025 -9.902229665463853e-5 0.0
0.0008416836941586386 -0.00010366212289597626 0.0
0.0008251780563254867 -0.00010355014100555619 0.0
0.0008192035960763846 -0.00010789266578577962 0.0
0.0008588546314743018 -0.00010364825582276442 0.0
0.0008817630046951719 -9.873343525108392e-5 0.0
0.0009056658457740857 -7.941710149109282e-5 0.0
0.0008765356588729467 -0.00010369281320699162 0.0
0.0009009911765889126 -9.807362049188271e-5 0.0
0.0008948872744713971 -0.00010383553769995762 0.0
0.0008029167643484036 -0.00010755925935475348 0.0
0.0007979399047675346 -0.0001115970549994579 0.0
0.0009201396925726474 -9.778660785741206e-5 0.0
0.0007804834331856639 -0.00011115141877250624 0.0
0.0007767276241851897 -0.00011514664811011852 0.0
0.0009145514405630663 -0.00010384194104163113 0.0
0.0009388243373227648 -9.808153524540235e-5 0.0
0.000757975484666912 -0.00011452419004413348 0.0
0.0007538353065576142 -0.00011853124015041485 0.0
0.0009339181643060262 -0.00010432181426368563 0.0
0.000958848000991978 -9.824024664590348e-5 0.0
0.0007356245794685444 -0.00011758456000580101 0.0
0.0007312947266763017 -0.00012177025216022275 0.0
0.0009538495913160121 -0.00010506544216374319 0.0
0.0009795298268539226 -9.849581047172842e-5 0.0
0.0007135738259433049 -0.0001202274467646275 0.0
0.0007079791254392905 -0.0001244647356725559 0.0
0.0009748402958140368 -0.00010572133057210742 0.0
0.0010007203216477695 -9.882747385758984e-5 0.0
0.0006894610114034192 -0.00012262961186035467 0.0
0.0006845015769641997 -0.00012692863833093268 0.0
0.0006644334056651553 -0.0001249319233746102 0.0
0.0006695674906533992 -0.00012064802668995507 0.0
0.0009472929092781145 -0.00011200980466873462 0.0
0.000995896072589667 -0.00010664225950134343 0.0
0.0010224669479508889 -9.928721968098228e-5 0.0
0.0010280060234194681 -9.1024625822838e-5 0.0
0.0009361742139693192 -6.589461825040644e-5 0.0
0.0010508943190048886 -9.115397584005548e-5 0.0
0.0010569706969858388 -8.243766144962196e-5 0.0
0.0010809721139807503 -8.211870504743782e-5 0.0
0.0006613970358333348 -0.0001294454858168467 0.0
0.0006403354740345116 -0.00012672967423909073 0.0
0.0006811726418926818 -0.00013171116877928353 0.0
0.0010168529756334488 -0.0001078699744383341 0.0
0.000637794070709026 -0.0001313137521824871 0.0
0.0006162132342574059 -0.00012808948590646699 0.0
0.0009719693229039134 -5.49046978868378e-5 0.0
0.0006139649938468794 -0.00013243732243757616 0.0
0.000592067147664831 -0.00012886180691653877 0.0
0.0005901274718280009 -0.00013324015250473155 0.0
0.0005683871236447719 -0.00012905725541754908 0.0
0.0005697594072240896 -0.0001249823168577276 0.0
0.0005441779091581362 -0.0001249628602222747 0.0
0.0005459124139880965 -0.00012074765526175644 0.0
0.000563923443614081 -0.00013325548600541564 0.0
0.0005180707941769613 -0.00012028685552476352 0.0
0.0005195163032483932 -0.0001161068785468919 0.0
0.0005885738968039582 -0.0001380571865070851 0.0
0.0005662914117278672 -0.00013853638120858223 0.0
0.0004921006333509816 -0.00011492857195274541 0.0
0.0004922682748650236 -0.00011074654635505031 0.0
0.001087903659476121 -7.324895514511064e-5 0.0
0.001113269851180109 -7.266506067276485e-5 0.0
0.0005872111882200349 -0.00014317281806232006 0.0
0.000565451217769874 -0.00014353722464492707 0.0
0.0011206068752153537 -6.356478874566312e-5 0.0
0.0011475776190195016 -6.2930026455648e-5 0.0
0.0011387839680519493 -7.32459813242358e-5 0.0
0.0011739473737253643 -6.299129508769677e-5 0.0
0.0011657174181816422 -7.379301731767589e-5 0.0
0.0012017007791322808 -6.279680977061565e-5 0.0
0.0011952782685784329 -7.36637401725746e-5 0.0
0.0012332134872790278 -6.160843075843798e-5 0.0
0.0012239621955628765 -7.310134050616118e-5 0.0
0.0012390808245993366 -5.1632465388717265e-5 0.0
0.0012626568133071447 -6.132728578076344e-5 0.0
0.0012518334280739326 -7.32228948220189e-5 0.0
0.0005863603081206767 -0.00014857366789991557 0.0
0.00046300366735425804 -0.00010894778740187509 0.0
0.0004622207140236992 -0.00010442577065209927 0.0
0.001215665708720858 -8.571764262163344e-5 0.0
0.001242637712537429 -8.604537771710744e-5 0.0
0.0012787599018768516 -7.347991781169384e-5 0.0
0.001208589100951958 -9.916517897771212e-5 0.0
0.0005653147847375162 -0.0001488907818122587 0.0
0.0012698710032397352 -8.657148337828592e-5 0.0
0.0013056029020674233 -7.378807899133334e-5 0.0
0.0005856979300711958 -0.0001542951778954068 0.0