# vtk DataFile Version 2.0
phase field modeling fracture
ASCII
DATASET UNSTRUCTURED_GRID
POINTS 2538 float
0.0 0.0 0.0
10.0 0.0 0.0
0.0 10.0 0.0
10.0 10.0 0.0
0.0 4.9995 0.0
0.0 5.0005 0.0
5.0 5.0 0.0
0.9416964895726688 0.0 0.0
1.803581725054446 0.0 0.0
2.592419885431098 0.0 0.0
3.314401822861676 0.0 0.0
3.975193910351406 0.0 0.0
4.579982132660152 0.0 0.0
5.133512780936812 0.0 0.0
5.640130319506143 0.0 0.0
6.103810708661955 0.0 0.0
6.528192895506818 0.0 0.0
6.916607540127679 0.0 0.0
7.272102969376355 0.0 0.0
7.597469242948583 0.0 0.0
7.895259826292669 0.0 0.0
8.167811885738017 0.0 0.0
8.417264413845215 0.0 0.0
8.645575169389538 0.0 0.0
8.854535961159101 0.0 0.0
9.045786767735546 0.0 0.0
9.220828555767493 0.0 0.0
9.38103509633881 0.0 0.0
9.527663687265145 0.0 0.0
9.661865124984566 0.0 0.0
9.784692609918062 0.0 0.0
9.897110148790482 0.0 0.0
10.0 0.09999999999992584 0.0
10.0 0.199999999999856 0.0
10.0 0.2999999999997771 0.0
10.0 0.3999999999996677 0.0
10.0 0.4999999999995511 0.0
10.0 0.5999999999994683 0.0
10.0 0.6999999999993983 0.0
10.0 0.7999999999993286 0.0
10.0 0.8999999999992587 0.0
10.0 0.9999999999991888 0.0
10.0 1.099999999999119 0.0
10.0 1.199999999999033 0.0
10.0 1.299999999998852 0.0
10.0 1.399999999998576 0.0
10.0 1.499999999998284 0.0
10.0 1.599999999997992 0.0
10.0 1.6999999999977 0.0
10.0 1.799999999997408 0.0
10.0 1.899999999997116 0.0
10.0 1.999999999996825 0.0
10.0 2.099999999996533 0.0
10.0 2.199999999996241 0.0
10.0 2.299999999995949 0.0
10.0 2.399999999995657 0.0
10.0 2.499999999995365 0.0
10.0 2.599999999995073 0.0
10.0 2.699999999994782 0.0
10.0 2.79999999999449 0.0
10.0 2.899999999994198 0.0
10.0 2.999999999993906 0.0
10.0 3.099999999993614 0.0
10.0 3.199999999993322 0.0
10.0 3.299999999993029 0.0
10.0 3.399999999992738 0.0
10.0 3.499999999992446 0.0
10.0 3.599999999992154 0.0
10.0 3.699999999991863 0.0
10.0 3.799999999991571 0.0
10.0 3.899999999991278 0.0
10.0 3.999999999991022 0.0
10.0 4.099999999991035 0.0
10.0 4.199999999991187 0.0
10.0 4.299999999991338 0.0
10.0 4.399999999991491 0.0
10.0 4.499999999991642 0.0
10.0 4.599999999991795 0.0
10.0 4.699999999991947 0.0
10.0 4.799999999992099 0.0
10.0 4.89999999999225 0.0
10.0 4.999999999992403 0.0
10.0 5.099999999992555 0.0
10.0 5.199999999992706 0.0
10.0 5.299999999992858 0.0
10.0 5.39999999999301 0.0
10.0 5.499999999993161 0.0
10.0 5.599999999993313 0.0
10.0 5.699999999993466 0.0
10.0 5.799999999993618 0.0
10.0 5.899999999993771 0.0
10.0 5.999999999993922 0.0
10.0 6.099999999994074 0.0
10.0 6.199999999994227 0.0
10.0 6.299999999994378 0.0
10.0 6.39999999999453 0.0
10.0 6.499999999994682 0.0
10.0 6.599999999994833 0.0
10.0 6.699999999994986 0.0
10.0 6.799999999995138 0.0
10.0 6.899999999995289 0.0
10.0 6.999999999995442 0.0
10.0 7.099999999995594 0.0
10.0 7.199999999995747 0.0
10.0 7.299999999995897 0.0
10.0 7.39999999999605 0.0
10.0 7.499999999996202 0.0
10.0 7.599999999996353 0.0
10.0 7.699999999996505 0.0
10.0 7.799999999996658 0.0
10.0 7.899999999996808 0.0
10.0 7.999999999996962 0.0
10.0 8.099999999997113 0.0
10.0 8.199999999997265 0.0
10.0 8.299999999997418 0.0
10.0 8.399999999997569 0.0
10.0 8.499999999997721 0.0
10.0 8.599999999997873 0.0
10.0 8.699999999998024 0.0
10.0 8.799999999998176 0.0
10.0 8.899999999998329 0.0
10.0 8.99999999999848 0.0
10.0 9.099999999998634 0.0
10.0 9.199999999998786 0.0
10.0 9.299999999998937 0.0
10.0 9.399999999999089 0.0
10.0 9.499999999999241 0.0
10.0 9.599999999999392 0.0
10.0 9.699999999999545 0.0
10.0 9.799999999999697 0.0
10.0 9.899999999999848 0.0
9.897110148790565 10.0 0.0
9.784692609918244 10.0 0.0
9.66186512498486 10.0 0.0
9.527663687265571 10.0 0.0
9.381035096339392 10.0 0.0
9.220828555768257 10.0 0.0
9.045786767736512 10.0 0.0
8.854535961160305 10.0 0.0
8.645575169391027 10.0 0.0
8.417264413847017 10.0 0.0
8.167811885740178 10.0 0.0
7.895259826295246 10.0 0.0
7.597469242951631 10.0 0.0
7.272102969379938 10.0 0.0
6.916607540131873 10.0 0.0
6.528192895511704 10.0 0.0
6.103810708667616 10.0 0.0
5.640130319512691 10.0 0.0
5.13351278094435 10.0 0.0
4.579982132668816 10.0 0.0
3.975193910361222 10.0 0.0
3.314401822869852 10.0 0.0
2.592419885437257 10.0 0.0
1.803581725058137 10.0 0.0
0.9416964895740705 10.0 0.0
0.0 9.00010000000243 0.0
0.0 8.000200000005481 0.0
0.0 7.000300000005135 0.0
0.0 6.000400000002569 0.0
0.901790731451151 5.000409820926855 0.0
1.657200899774397 5.000334279910023 0.0
2.289991063707192 5.000271000893629 0.0
2.820065163538221 5.000217993483646 0.0
3.264096435579811 5.000173590356442 0.0
3.636051481595835 5.00013639485184 0.0
3.947629914072366 5.000105237008593 0.0
4.208632181002628 5.0000791367819 0.0
4.427267949625672 5.000057273205037 0.0
4.610414277633563 5.000038958572237 0.0
4.763831845154243 5.000023616815485 0.0
4.892346298799659 5.00001076537012 0.0
4.892346298799748 4.99998923462988 0.0
4.763831845154455 4.999976383184515 0.0
4.610414277633943 4.999961041427763 0.0
4.427267949626277 4.999942726794963 0.0
4.208632181003523 4.9999208632181 0.0
3.94762991407365 4.999894762991407 0.0
3.636051481597624 4.99986360514816 0.0
3.264096435582253 4.999826409643559 0.0
2.820065163541503 4.999782006516354 0.0
2.289991063711534 4.999728999106371 0.0
1.657200899778495 4.999665720089978 0.0
0.9017907314530094 4.999590179073145 0.0
0.0 3.999600000002013 0.0
0.0 2.999700000005187 0.0
0.0 1.99980000000512 0.0
0.0 0.9999000000025537 0.0
9.897889398521345 2.93573355845387 0.0
9.906568249974548 7.060009441434234 0.0
9.913122631074113 3.64016132281653 0.0
9.922462129543863 6.354535290629151 0.0
9.917693659967533 4.354211663134567 0.0
9.909873057440208 5.637584487339942 0.0
9.914183254994697 4.950672966925282 0.0
9.913885043715895 7.666887930262611 0.0
9.91009668007573 2.351889069770817 0.0
9.905135696074536 8.138152454502785 0.0
9.913397459621809 1.849999999997262 0.0
7.099302372137626 0.297750452375005 0.0
7.095143729410097 9.700359990366296 0.0
4.942912558701401 5.095838627899509 0.0
4.315009232304429 5.165022115481685 0.0
4.946182472483878 4.906763777264103 0.0
4.317967462990024 4.825955043772673 0.0
9.916390871492647 8.64999999999792 0.0
9.921504649680616 1.368376469890358 0.0
8.292538149791614 0.206877570318844 0.0
8.292538149793597 9.793122429681448 0.0
5.884594439766573 9.587645267048616 0.0
5.794826292691579 0.3794853783929359 0.0
9.913397459621425 9.049999999998557 0.0
9.908526577714177 0.9568239351922434 0.0
3.456851160380649 5.315740054130451 0.0
3.457889657868442 4.707121019609468 0.0
8.945214200703926 0.1503383337970344 0.0
8.950161364448409 9.8413906539257 0.0
9.913862335499305 4.055887885208452 0.0
9.916697353372683 4.650158482607802 0.0
9.919076340414442 6.049999999994006 0.0
9.906994308667635 5.25749687748192 0.0
9.917490342358025 6.655979201891897 0.0
9.915757520293784 7.343848891656911 0.0
9.910049507471042 3.363474386285078 0.0
9.914471988502868 2.647400064832979 0.0
9.91474124160965 9.337490423485129 0.0
9.916971008170838 0.6499999999994355 0.0
4.307157269264427 9.509674045029644 0.0
4.331527375865619 0.4401616696422582 0.0
9.45434939180249 9.878397030523757 0.0
9.457696120412969 0.1270877537061785 0.0
2.555070293622606 5.422044496190925 0.0
2.566232917480916 4.608001224030952 0.0
3.026511860837692 9.332320638257093 0.0
2.945561971800619 0.5895662714727601 0.0
7.7395404387124 0.2511088946967771 0.0
7.736379255744154 9.745848826372828 0.0
4.687135269408529 5.122111433928926 0.0
4.688420821504113 4.871895064967488 0.0
9.910554884115975 0.3448356354522978 0.0
9.911230082250466 9.65764729394159 0.0
9.921953841410854 6.851023993342036 0.0
9.912065178606017 5.448170483544033 0.0
9.911660025326261 3.861846960030188 0.0
9.914847467973438 3.14501593945607 0.0
9.913397459621425 5.849999999993703 0.0
9.913397459621425 7.849999999996735 0.0
9.906916878988277 2.15455769998631 0.0
9.913397459621425 8.349999999997479 0.0
9.909472363117661 1.640528221515488 0.0
9.913987325695956 1.152857110636247 0.0
9.913397459621425 8.849999999998241 0.0
0.9100099990995943 2.614215977520411 0.0
0.8395284981715456 7.451196254860987 0.0
9.723278867451556 9.898135916635193 0.0
9.723316350887044 0.09841820909386662 0.0
1.385819164827588 4.454539963646463 0.0
1.338343629665047 5.523111536005823 0.0
1.377179700550677 0.6809168304959698 0.0
1.418060461092743 9.285896715136046 0.0
9.91268220142518 0.1457914080939694 0.0
9.906737126737994 9.845745933882352 0.0
0.7108351382691361 6.537941170074089 0.0
1.527735020267026 6.915620208855231 0.0
1.630993885659103 7.838271825205868 0.0
2.232760943566823 7.370850737296832 0.0
2.243414218068206 6.688299277952821 0.0
2.779655053105118 7.021588754814074 0.0
2.80227799359795 7.632420170547022 0.0
3.282022065908813 7.305859666021318 0.0
3.327597298795347 7.857554136825748 0.0
3.743210251018715 7.549183328204379 0.0
3.716353232200752 7.062036086888612 0.0
4.111978858674101 7.27497101169417 0.0
4.104192177581432 6.879858986267289 0.0
4.436230765617037 7.045693351607117 0.0
4.430360014817357 6.703971783962796 0.0
4.732390145036301 6.849841042423394 0.0
5.056161327708878 5.095276573498806 0.0
5.111586796021131 4.999081142133581 0.0
5.169267363407189 5.09444870412406 0.0
5.223795108752053 4.996986220359468 0.0
5.281480803887719 5.092780870372803 0.0
5.335670761900611 4.994887492556936 0.0
5.393485214772442 5.090486192743301 0.0
5.447323082877892 4.992601527033996 0.0
5.505243219343024 5.087953380710069 0.0
5.558739102026105 4.990287787962959 0.0
5.616491581184779 5.085335255235766 0.0
5.669852346908056 4.9879269227514 0.0
5.727502713908907 5.082679981817038 0.0
5.780766004135139 4.988313988715834 0.0
5.838244881129535 5.080480568766611 0.0
5.891357695677371 4.986433849408193 0.0
5.948696036767613 5.077969900389505 0.0
6.001601341641615 4.981313698556656 0.0
6.058851024265095 5.074871552128682 0.0
6.111614020704875 4.978360695880202 0.0
6.168801161530775 5.072044953270978 0.0
6.221368818778567 4.975825765213497 0.0
6.278268309066882 5.066182320461055 0.0
6.330814273567539 4.972837984645718 0.0
6.387565032421376 5.062889771971895 0.0
6.437476667631405 4.971693683589553 0.0
[...]
POINT_DATA 2538
VECTORS disp float
2.066486132568716e-11 5.484896532993319e-11 0.0
4.46255332834686e-11 -1.2217081040743134e-10 0.0
0.004999999981586812 5.0460270826082214e-11 0.0
0.004999999954944516 -1.2458760754082209e-10 0.0
0.0015568111249630464 0.0006578561956481979 0.0
0.0035985269282200177 0.00046975516522934104 0.0
0.002466329011517323 0.00016611001757290835 0.0
6.160989953431843e-12 6.87941060368048e-12 0.0
1.0911406265515018e-11 1.388209769620571e-11 0.0
1.0273571146395634e-11 8.955491150978347e-12 0.0
1.0301800755692542e-11 8.376804211406846e-12 0.0
9.897069228258226e-12 6.458944305337186e-12 0.0
9.417332076507847e-12 4.854380300881001e-12 0.0
8.976713695308226e-12 3.0471825423213153e-12 0.0
8.613919076484595e-12 1.1083211076203185e-12 0.0
7.692232748297384e-12 -1.0430921305621785e-12 0.0
8.03534554972715e-12 -2.9423465977280094e-12 0.0
7.648928797394237e-12 -5.0744390072518255e-12 0.0
7.541754128955173e-12 -7.327846897599376e-12 0.0
7.635637771430415e-12 -9.559343274691381e-12 0.0
7.467572945469056e-12 -1.1707587803737201e-11 0.0
7.758645681769089e-12 -1.4260943253954711e-11 0.0
7.681643366701713e-12 -1.6479062544977005e-11 0.0
8.027057125734503e-12 -1.9016391004825752e-11 0.0
8.072820895192324e-12 -2.1935422413354503e-11 0.0
8.346033643834406e-12 -2.464996049190846e-11 0.0
8.620201776191894e-12 -2.784426319037789e-11 0.0
8.996899183320197e-12 -3.1377629027828663e-11 0.0
9.768120601658715e-12 -3.552925842016899e-11 0.0
9.71222166055599e-12 -3.992021933028226e-11 0.0
1.3040268610950573e-11 -4.955395611182423e-11 0.0
5.382715134065277e-12 -4.566853017629943e-11 0.0
6.109240411441182e-5 -8.430716298748666e-5 0.0
0.00010515873269131207 -0.0001461342327815181 0.0
0.0001478789938599418 -0.00020027935762522746 0.0
0.00018884919401172226 -0.0002496734444307362 0.0
0.00022863341922768453 -0.00029570319596323107 0.0
0.0002680735396279093 -0.00033943516779536036 0.0
0.000307813101387786 -0.0003810636197186365 0.0
0.000347471376389813 -0.0004208915673649653 0.0
0.0003873888808834988 -0.0004592469189217306 0.0
0.00042764919416020056 -0.0004961448704532478 0.0
0.00046828081815860717 -0.0005318747691433916 0.0
0.0005095644531669735 -0.0005664660219210353 0.0
0.0005511838105761126 -0.000599910303366787 0.0
0.0005933576042216068 -0.0006324437537191695 0.0
0.000636319299346979 -0.0006640386271619973 0.0
0.0006795989357481372 -0.0006946359494953648 0.0
0.000723492035734545 -0.0007244037567434576 0.0
0.0007679756515497064 -0.0007532180067393557 0.0
0.0008130227149735584 -0.0007812264464656411 0.0
0.0008586536524853073 -0.000808431024316504 0.0
0.0009049219987002364 -0.000834836094562674 0.0
0.0009517083696212537 -0.0008604128578044546 0.0
0.0009992816689253612 -0.0008852998866959684 0.0
0.0010472133523599444 -0.0009093248894968803 0.0
0.0010959808053504511 -0.0009326356012089844 0.0
0.0011450663981100587 -0.0009550972472298574 0.0
0.0011948005432583233 -0.0009768502799847093 0.0
0.001245012318659475 -0.0009977371592564737 0.0
0.0012959569225134738 -0.0010179531608898128 0.0
0.0013471910983553989 -0.0010373410946187334 0.0
0.001399139191865732 -0.001056017503246884 0.0
0.0014515189429520406 -0.0010738414197964325 0.0
0.0015044426985941235 -0.0010909080965168438 0.0
0.0015577514357878115 -0.001107150550940024 0.0
0.001611724064989964 -0.0011226619941237337 0.0
0.0016659328115284533 -0.0011372936804600609 0.0
0.0017206411855463343 -0.0011511361831889973 0.0
0.0017757150468125519 -0.0011641006348971283 0.0
0.001831205679010436 -0.001176223400616375 0.0
0.001887022716886721 -0.0011875626948369227 0.0
0.0019431332408984274 -0.001197972703465723 0.0
0.0019995947659635516 -0.0012076052238381965 0.0
0.0020563419083608737 -0.0012163203213727076 0.0
0.0021132608893303885 -0.0012242301948604418 0.0
0.0021704423624653965 -0.0012311585356217416 0.0
0.0022276416570387154 -0.0012372641136748229 0.0
0.002285054415912575 -0.0012424988318321007 0.0
0.002342498430972433 -0.001246760112043181 0.0
0.002399954918984938 -0.001250201380722346 0.0
0.0024575480256526345 -0.0012526618233161602 0.0
0.002514574657846413 -0.0012539864550042627 0.0
0.002572109506720823 -0.0012545702370068614 0.0
0.002627890581115822 -0.0012537152339447436 0.0
0.002684645821184276 -0.0012519044548752562 0.0
0.0027390062271944347 -0.0012486570065650467 0.0
0.002795107152836746 -0.0012441903267537914 0.0
0.0028499544444303645 -0.0012382099342132247 0.0
0.00290523768075704 -0.0012303546828711493 0.0
0.0029608782367307376 -0.0012213087263064455 0.0
0.003016995930120903 -0.001210715935268057 0.0
0.0030731013391187595 -0.0011992111501313578 0.0
0.0031293151200444155 -0.001186561725457033 0.0
0.003185426433583028 -0.0011731008075933714 0.0
0.0032413694862354746 -0.0011585777689800043 0.0
0.003297150909588382 -0.0011431512302998803 0.0
0.0033526493544891183 -0.0011271196732459679 0.0
0.00340760488863904 -0.0011101813632427256 0.0
0.0034621479440811644 -0.001092560386490384 0.0
0.0035163756653226732 -0.0010741014768525258 0.0
0.003570208263435426 -0.0010547993118192093 0.0
0.003623407804024063 -0.0010348422850346086 0.0
0.0036764135223876318 -0.0010140384978823418 0.0
0.0037286763869024448 -0.0009924663144047306 0.0
0.0037804423807518517 -0.0009702340659804847 0.0
0.003831877996074033 -0.0009470963249336502 0.0
0.0038825370027331467 -0.0009233192886172572 0.0
0.003932809073050931 -0.000898776625975666 0.0
0.00398248429833927 -0.0008734632358038522 0.0
0.004031707195731244 -0.0008473916461330811 0.0
0.004080382804853063 -0.0008204424796902644 0.0
0.004128578342782527 -0.0007926652686745094 0.0
0.0041760202115738426 -0.0007641866570148217 0.0
0.004223056020162412 -0.0007348916882363652 0.0
0.004269632783185374 -0.0007047083756723178 0.0
0.004315580434623268 -0.0006736500209967398 0.0
0.0043610864464472265 -0.0006417486371984365 0.0
0.0044062609715817555 -0.0006087982641626239 0.0
0.004450804924011573 -0.0005748331610282298 0.0
0.004494834604607088 -0.0005399039949307769 0.0
0.004538704321847893 -0.0005038227157518637 0.0
0.004582366973078133 -0.0004664208291770712 0.0
0.004625572636773125 -0.00042761336301622697 0.0
0.004668426277483987 -0.00038732788954393854 0.0
0.0047113182138176415 -0.0003452908343463488 0.0
0.004754765954107555 -0.0003010585112563403 0.0
0.004798179362040768 -0.0002543432847374824 0.0
0.004842096038649035 -0.00020411450181229265 0.0
0.004888718421677879 -0.0001488840461836509 0.0
0.004936641511400087 -8.581675721336358e-5 0.0
0.004999999994084434 -4.362147507539187e-11 0.0
0.004999999986299307 -4.830013643752183e-11 0.0
0.004999999989982099 -3.604619077326463e-11 0.0
0.004999999989852337 -3.2466415310243036e-11 0.0
0.004999999990415858 -2.8211484220900052e-11 0.0
0.004999999990870705 -2.476455244840135e-11 0.0
0.004999999991021449 -2.195700948170782e-11 0.0
0.0049999999913331265 -1.9416756709315095e-11 0.0
0.004999999991390911 -1.700536365638275e-11 0.0
0.004999999991500573 -1.4647077871569297e-11 0.0
0.0049999999918858085 -1.2738733538491422e-11 0.0
0.0049999999916834036 -1.0219164712848536e-11 0.0
0.004999999991843601 -8.344888242402596e-12 0.0
0.004999999991874112 -6.176367309448563e-12 0.0
0.004999999991832892 -4.108729423619914e-12 0.0
0.004999999991715562 -1.9697997555401264e-12 0.0
0.004999999991674766 8.774516193394839e-14 0.0
0.00499999999090604 2.349361881463043e-12 0.0
0.004999999991362688 4.124966237348528e-12 0.0
0.004999999990179751 6.324781901768033e-12 0.0
0.00499999999016217 7.74880756425818e-12 0.0
0.004999999989719804 9.28614529591049e-12 0.0
0.004999999990125655 9.78709141107352e-12 0.0
0.004999999989785201 1.3944965764630327e-11 0.0
0.004999999994449742 7.153455922565177e-12 0.0
0.004637066550686176 0.0002955727900231413 0.0
0.004314891455049836 0.0004310278297839141 0.0
0.004017100036257612 0.00048728909170451347 0.0
0.003764329195048175 0.0004889848937796552 0.0
0.0035894750245855957 0.00031577177146193433 0.0
0.003564432557109529 0.00023286116152911423 0.0
0.003515143183151624 0.0001919346363175516 0.0
0.0034549136774578116 0.00017282880910993536 0.0
0.0033826898268435285 0.00016881646309248655 0.0
0.0033024430223679057 0.00017086430963610203 0.0
0.003215750286881144 0.00017518701237136344 0.0
0.0031243389724145802 0.0001822470007739401 0.0
0.0030265977025969518 0.00018824745929490845 0.0
0.0029216226884016643 0.00019237154274711943 0.0
0.0028040629676677753 0.00019376152671730346 0.0
0.00266157941710773 0.00019339479975709128 0.0
0.0022749298633741684 0.0002101536825516039 0.0
0.0021405339720448374 0.0002215990763346406 0.0
0.0020297396520994487 0.00022408387497980774 0.0
0.0019331820943558754 0.00022483568301504824 0.0
0.001845707237408474 0.00022560964857705097 0.0
0.0017665960068155224 0.00022745796220705 0.0
0.001695739109159095 0.00023203319162567784 0.0
0.0016355121947920135 0.00024168288278860497 0.0
0.001588465898023521 0.00026301594237918176 0.0
0.0015564393932133856 0.0003020142553701814 0.0
0.0015435153196224098 0.0003690458346421744 0.0
0.0015456619247916988 0.0004837653578305505 0.0
0.00136073212215746 0.0006610742889481271 0.0
0.0010879690785141206 0.000615630119126078 0.0
0.0007537579373298923 0.0005115456215398915 0.0
0.00039692465886437343 0.00033685839531866544 0.0
0.0013072294689692478 -0.0009746598016572813 0.0
0.00361085423332815 -0.0009907931733339032 0.0
0.0016831049801004348 -0.0010975325680058225 0.0
0.003222152681913675 -0.0011187588581823354 0.0
0.002084074421041702 -0.0011763509264912677 0.0
0.002819522839843203 -0.0011881471326077012 0.0
0.0024279901880734176 -0.001204776778497851 0.0
0.003925116994268952 -0.0008621741292186994 0.0
0.001016910583597445 -0.0008561453848326599 0.0
0.00415735721382052 -0.0007355105582765325 0.0
0.000782662788577339 -0.0007295956679035425 0.0
8.080046900405272e-5 -1.626292477898656e-5 0.0
0.004918158691328358 -1.6058904110909282e-5 0.0
0.002695530144206459 0.00021313976539820163 0.0
0.0030908182563262774 0.00020861057039191626 0.0
0.0022396487671291643 0.0002210594639482813 0.0
0.0018678558029888606 0.00024563809405055625 0.0
0.004393944533654504 -0.0005869700435400983 0.0
0.0005719674645253937 -0.0005901544122340592 0.0
5.4513428443584496e-5 -2.966914697234866e-5 0.0
0.00494413331018375 -2.8039539465279025e-5 0.0
0.004881707380814583 3.5858198871558416e-6 0.0
0.00010948905745163799 4.312483079067152e-6 0.0
0.004572012954777401 -0.0004474737071206979 0.0
0.0003998628355929783 -0.0004451485216614096 0.0
0.0033604900021451793 0.00019782478533666853 0.0
0.0016341485626005607 0.00025239996282534457 0.0
4.010476603154987e-5 -3.260748243185586e-5 0.0
0.004956101768225072 -3.2043087697373965e-5 0.0
0.0019145626191310846 -0.0011475176131655548 0.0
0.0022541432974879237 -0.0011949157323646368 0.0
0.0030506121749527913 -0.0011555241577692389 0.0
0.0026051923795549345 -0.0012028169250229892 0.0
0.003390511918322901 -0.0010697265062321096 0.0
0.0037595997751761904 -0.0009372900493919324 0.0
0.001532854909332154 -0.0010552108451491419 0.0
0.0011622316169044543 -0.0009245090319464527 0.0
0.004696654805901746 -0.00033590200059565824 0.0
0.00027743057576672516 -0.0003294108082854256 0.0
0.004849251052878158 3.160217024560913e-5 0.0
0.00013600206084272005 2.7063261204606608e-5 0.0
0.004963307643062256 -3.540529960744455e-5 0.0
3.695339703163421e-5 -3.970345158260816e-5 0.0
0.0035170004199981822 0.0002073215332702559 0.0
0.0015123897658327196 0.00029142114273125074 0.0
0.004789573900083051 5.86292383816031e-5 0.0
0.00018697236331805398 5.274899225048708e-5 0.0
6.68699066215237e-5 -2.460443153330983e-5 0.0
0.004931226662045565 -2.3909303048187145e-5 0.0
0.0028928347470786792 0.0002183040433279902 0.0
0.0020496767985904657 0.00024604815472465476 0.0
0.00015313400933053632 -0.0001901900391946242 0.0
0.00483806120043242 -0.00019018231508443977 0.0
0.0034968019035637368 -0.0010386289075122004 0.0
0.0027132992075025552 -0.0012002901299099046 0.0
0.00180571619717749 -0.00112498286827973 0.0
0.0014172419155554922 -0.0010212657444656846 0.0
0.0029381347597938878 -0.0011729098979458847 0.0
0.004016350157789512 -0.0008164189372053647 0.0
0.0009226133078355254 -0.0008067667285426965 0.0
0.004256425351413411 -0.0006785650988465433 0.0
0.0006886692713600205 -0.0006684624533367907 0.0
0.00048080221683469826 -0.0005161902727123187 0.0
0.004483810384523978 -0.0005188419710905403 0.0
0.0009133467366315673 0.00036464011306373514 0.0
0.0041591349206721384 0.0003187107547307836 0.0
0.004964405617400627 -3.99270610764894e-5 0.0
3.236403142655682e-5 -4.004682990351186e-5 0.0
0.0014416162962012451 0.0004043548348452419 0.0
0.003634413230307109 0.00028199780257066897 0.0
0.00020956651863023956 8.623801349345514e-5 0.0
0.004784937641995085 8.347836789486693e-5 0.0
6.672362479755552e-5 -8.526557201269096e-5 0.0
0.004927266095397359 -8.779408080793269e-5 0.0
0.003888496166974067 0.0003676487482309726 0.0
0.003985744994269624 0.0002818409047189076 0.0
0.004289855161220775 0.00021968894260060285 0.0
0.00411873128112884 0.00022636951284081154 0.0
0.0038863178562268267 0.00025332918874696646 0.0
0.003972493615596867 0.00023294594209250785 0.0
0.004195001566730292 0.0001987103317123498 0.0
0.004056264834340758 0.00021209707966278856 0.0
0.004266401176364081 0.00017441471143600653 0.0
0.004137595815444583 0.00018695628280838446 0.0
0.003940623454394745 0.0002183700661377781 0.0
0.004014760323245844 0.00019257376625328936 0.0
0.0038447413641672984 0.00021722826270288768 0.0
0.0039043309283298424 0.0001899001378222592 0.0
0.0037489296445696436 0.0002106168598488948 0.0
0.003802495901462594 0.0001785255711133354 0.0
0.0026296524060651053 0.0001442701805580752 0.0
0.0024630897616090565 0.00011607306165508056 0.0
0.002594750637731945 0.0001031224294988288 0.0
0.002459779744025449 8.307752103175342e-5 0.0
0.0025742076687462843 7.20127082110015e-5 0.0
0.0024583594677154495 5.677723584787039e-5 0.0
0.0025608718280549117 4.585914347832019e-5 0.0
0.0024565192904124227 3.271784662388885e-5 0.0
0.002551114411200478 2.2346088431749664e-5 0.0
0.002454837620144577 1.0548230114333412e-5 0.0
0.002543692581418945 7.748573226258681e-7 0.0
0.0024535531057802307 -1.0105587742645789e-5 0.0
0.002537984251453803 -2.003291585492381e-5 0.0
0.002454835809173828 -3.00917350389082e-5 0.0
0.0025335323867942197 -3.992864659382185e-5 0.0
0.0024539102424412733 -4.9612426227797786e-5 0.0
0.002529510673313936 -5.926226155385783e-5 0.0
0.0024505041519942146 -6.868886429617752e-5 0.0
0.0025255864121938062 -7.827059868128531e-5 0.0
0.002449009917338741 -8.741409134045744e-5 0.0
0.0025223452616425154 -9.710955162922507e-5 0.0
0.0024478541615451286 -0.00010606656905904476 0.0
0.002517084354068681 -0.00011576667497459467 0.0
0.002446293802785027 -0.00012477964249847748 0.0
0.002514032026467506 -0.0001345570543612553 0.0
0.002446095040485872 -0.00014315551984484597 0.0
0.0025114544767809877 -0.00015344918326877892 0.0
0.0024413724412016384 -0.0001609239734384118 0.0
0.002508211423014525 -0.00017245544544906616 0.0
0.0024236966459678963 -0.000180162966309165 0.0
0.0025095615231142984 -0.0001920927771270598 0.0
0.0024384736209131447 -0.00020108740105231313 0.0
0.0025067203410429053 -0.00021182064527917058 0.0
0.002439644883618815 -0.00022137687581086008 0.0
0.0025050382074177178 -0.00023215361539403824 0.0
0.0024427007044566873 -0.00024190435632373333 0.0
0.0025031122093404335 -0.0002528502790257749 0.0
0.0024425558786518604 -0.00026319865053681595 0.0
0.002365873462433175 2.3011442557445847e-5 0.0
0.002501180171910846 -0.0002741684342068008 0.0
0.002373535996678338 -7.66383263140429e-5 0.0
0.0023606575355159215 -0.00019544082357187756 0.0
0.00243747859315471 -0.00028476760741744545 0.0
0.0024988080149447975 -0.00029609446994778213 0.0
0.0024325454802992144 -0.0003077538250293114 0.0
0.0023721052953572944 -0.00029429229708440794 0.0
0.0023656731710434103 -0.0003184508426624112 0.0
0.0024940146992191666 -0.00032000299916310355 0.0
0.0025610101651963573 -0.0003074870928511965 0.0
0.002571199168263713 -0.00020149379373599657 0.0
0.002556553666781057 -0.0003321133044359466 0.0
0.0026274831626670945 -0.000317219724388916 0.0
0.002620683914077585 -0.00034413902785509126 0.0
0.002305809964487927 -0.0003043295546599362 0.0
0.002301831956713129 -0.00032809788845179083 0.0
0.002693644998074221 -0.00032790449364276497 0.0
0.0022381301194183212 -0.00031317926290641145 0.0
0.00223810472512865 -0.0003382031981627208 0.0
0.0026880012322006686 -0.00035517722632804813 0.0
0.002758520083308998 -0.000340185521184115 0.0
0.002170016328649447 -0.000322247940337749 0.0
0.0021684347869090023 -0.0003481172582902389 0.0
0.002754362350218948 -0.0003673404039427686 0.0
0.002826665180246054 -0.0003514357910056341 0.0
0.002102200982127405 -0.0003313800086909894 0.0
0.0021000432102276307 -0.00035890557643812035 0.0
0.0028223236323876716 -0.00038005687944635345 0.0
0.0028963371900059686 -0.0003625624602732248 0.0
0.0020348587321457135 -0.0003391598574039516 0.0
0.0020281961117571638 -0.00036765553042938075 0.0
0.002892908008187298 -0.0003919847337469264 0.0
0.002967099068753834 -0.00037349151420666514 0.0
0.0019608115995781773 -0.00034704627677217625 0.0
0.001955909240753634 -0.00037732337002971693 0.0
0.0018847310753075566 -0.0003568946155201498 0.0
0.001889125208031043 -0.0003248314812526924 0.0
0.0028119768293565135 -0.00040837060074190806 0.0
0.002963344866586023 -0.0004041378959934089 0.0
0.0030387937852223127 -0.0003842941823506452 0.0
0.0030438020781276094 -0.00035290885176266716 0.0
0.0025867041757750187 -0.00010731075089200652 0.0
0.003118138723485056 -0.0003631746299040802 0.0
0.003123803186058277 -0.0003306805553570578 0.0
0.003200241565524324 -0.00033995579315296233 0.0
0.0018857258220993294 -0.00038975307635572476 0.0
0.0018113665909997689 -0.00036584254590710946 0.0
0.00195549613318963 -0.0004099783884801419 0.0
0.0030329107236090553 -0.0004166207173195384 0.0
0.0018131653776549807 -0.0003997220824564607 0.0
0.0017379901901633306 -0.00037396230747313466 0.0
0.0026176475195158156 -2.84006907609751e-5 0.0
0.0017393826854941149 -0.0004073033169151806 0.0
0.0016644141396999286 -0.0003811231986131785 0.0
0.0016659132853636912 -0.0004154451867390764 0.0
0.0015919825618768324 -0.0003867617205061333 0.0
0.001588831321194514 -0.0003533197713049301 0.0
0.0015122328221555807 -0.0003599552769600929 0.0
0.0015101156560166035 -0.00032463138369162733 0.0
0.001584598604438927 -0.0004209725464743244 0.0
0.001428033412667394 -0.0003317592035250272 0.0
0.0014252462001791476 -0.00029560069521041623 0.0
0.001667839546498569 -0.000451915094876736 0.0
0.0015985957971373515 -0.0004602538953270034 0.0
0.0013451947312929215 -0.00029990266037983025 0.0
0.0013397055070528605 -0.00026478622066914044 0.0
0.003208110491811402 -0.000307137058904431 0.0
0.0032873253387660866 -0.0003160355069217876 0.0
0.0016694039755546443 -0.0004889953861335461 0.0
0.0016008648482239364 -0.000497218848725706 0.0
0.0032961153056385514 -0.00028228416390038545 0.0
0.003378855101981253 -0.0002915452754335333 0.0
0.003366804379704279 -0.00032858891140682224 0.0
0.003458623359642705 -0.00030213777390174034 0.0
0.003448261968514669 -0.000340193524121836 0.0
0.0035399142873731326 -0.00031085987535390706 0.0
0.0035343847669161437 -0.00034881498812190865 0.0
0.0036287787296682026 -0.0003156710271080299 0.0
0.0036155138337196557 -0.0003544909865790638 0.0
0.0036343128992507657 -0.0002793386000682373 0.0
0.0037112358525247394 -0.00032205983840716875 0.0
0.0036932474916911515 -0.00036081660032487957 0.0
0.0016715653641882142 -0.0005268835395532744 0.0
0.0012555580028060555 -0.00026827573526940206 0.0
0.001248495587539796 -0.00023275845253492567 0.0
0.0036055466247372483 -0.00039453581046882704 0.0
0.0036806530098441935 -0.0004004473471574365 0.0
0.003766859720800602 -0.00036625772442150145 0.0
0.0035992822734703628 -0.00043579762014225805 0.0
0.0016044885493456422 -0.0005354251254545907 0.0
0.003754858948380471 -0.00040556393745383174 0.0
0.003838939724193235 -0.0003704334564138959 0.0
0.001673371940178431 -0.0005659523568675735 0.0
0.0016074250786040556 -0.000574826665171049 0.0
0.0015396653012477155 -0.0005430213658975218 0.0