# vtk DataFile Version 2.0
phase field modeling fracture
ASCII
DATASET UNSTRUCTURED_GRID
POINTS 2538 float
0.0 0.0 0.0
10.0 0.0 0.0
0.0 10.0 0.0
10.0 10.0 0.0
0.0 4.9995 0.0
0.0 5.0005 0.0
5.0 5.0 0.0
0.9416964895726688 0.0 0.0
1.803581725054446 0.0 0.0
2.592419885431098 0.0 0.0
3.314401822861676 0.0 0.0
3.975193910351406 0.0 0.0
4.579982132660152 0.0 0.0
5.133512780936812 0.0 0.0
5.640130319506143 0.0 0.0
6.103810708661955 0.0 0.0
6.528192895506818 0.0 0.0
6.916607540127679 0.0 0.0
7.272102969376355 0.0 0.0
7.597469242948583 0.0 0.0
7.895259826292669 0.0 0.0
8.167811885738017 0.0 0.0
8.417264413845215 0.0 0.0
8.645575169389538 0.0 0.0
8.854535961159101 0.0 0.0
9.045786767735546 0.0 0.0
9.220828555767493 0.0 0.0
9.38103509633881 0.0 0.0
9.527663687265145 0.0 0.0
9.661865124984566 0.0 0.0
9.784692609918062 0.0 0.0
9.897110148790482 0.0 0.0
10.0 0.09999999999992584 0.0
10.0 0.199999999999856 0.0
10.0 0.2999999999997771 0.0
10.0 0.3999999999996677 0.0
10.0 0.4999999999995511 0.0
10.0 0.5999999999994683 0.0
10.0 0.6999999999993983 0.0
10.0 0.7999999999993286 0.0
10.0 0.8999999999992587 0.0
10.0 0.9999999999991888 0.0
10.0 1.099999999999119 0.0
10.0 1.199999999999033 0.0
10.0 1.299999999998852 0.0
10.0 1.399999999998576 0.0
10.0 1.499999999998284 0.0
10.0 1.599999999997992 0.0
10.0 1.6999999999977 0.0
10.0 1.799999999997408 0.0
10.0 1.899999999997116 0.0
10.0 1.999999999996825 0.0
10.0 2.099999999996533 0.0
10.0 2.199999999996241 0.0
10.0 2.299999999995949 0.0
10.0 2.399999999995657 0.0
10.0 2.499999999995365 0.0
10.0 2.599999999995073 0.0
10.0 2.699999999994782 0.0
10.0 2.79999999999449 0.0
10.0 2.899999999994198 0.0
10.0 2.999999999993906 0.0
10.0 3.099999999993614 0.0
10.0 3.199999999993322 0.0
10.0 3.299999999993029 0.0
10.0 3.399999999992738 0.0
10.0 3.499999999992446 0.0
10.0 3.599999999992154 0.0
10.0 3.699999999991863 0.0
10.0 3.799999999991571 0.0
10.0 3.899999999991278 0.0
10.0 3.999999999991022 0.0
10.0 4.099999999991035 0.0
10.0 4.199999999991187 0.0
10.0 4.299999999991338 0.0
10.0 4.399999999991491 0.0
10.0 4.499999999991642 0.0
10.0 4.599999999991795 0.0
10.0 4.699999999991947 0.0
10.0 4.799999999992099 0.0
10.0 4.89999999999225 0.0
10.0 4.999999999992403 0.0
10.0 5.099999999992555 0.0
10.0 5.199999999992706 0.0
10.0 5.299999999992858 0.0
10.0 5.39999999999301 0.0
10.0 5.499999999993161 0.0
10.0 5.599999999993313 0.0
10.0 5.699999999993466 0.0
10.0 5.799999999993618 0.0
10.0 5.899999999993771 0.0
10.0 5.999999999993922 0.0
10.0 6.099999999994074 0.0
10.0 6.199999999994227 0.0
10.0 6.299999999994378 0.0
10.0 6.39999999999453 0.0
10.0 6.499999999994682 0.0
10.0 6.599999999994833 0.0
10.0 6.699999999994986 0.0
10.0 6.799999999995138 0.0
10.0 6.899999999995289 0.0
10.0 6.999999999995442 0.0
10.0 7.099999999995594 0.0
10.0 7.199999999995747 0.0
10.0 7.299999999995897 0.0
10.0 7.39999999999605 0.0
10.0 7.499999999996202 0.0
10.0 7.599999999996353 0.0
10.0 7.699999999996505 0.0
10.0 7.799999999996658 0.0
10.0 7.899999999996808 0.0
10.0 7.999999999996962 0.0
10.0 8.099999999997113 0.0
10.0 8.199999999997265 0.0
10.0 8.299999999997418 0.0
10.0 8.399999999997569 0.0
10.0 8.499999999997721 0.0
10.0 8.599999999997873 0.0
10.0 8.699999999998024 0.0
10.0 8.799999999998176 0.0
10.0 8.899999999998329 0.0
10.0 8.99999999999848 0.0
10.0 9.099999999998634 0.0
10.0 9.199999999998786 0.0
10.0 9.299999999998937 0.0
10.0 9.399999999999089 0.0
10.0 9.499999999999241 0.0
10.0 9.599999999999392 0.0
10.0 9.699999999999545 0.0
10.0 9.799999999999697 0.0
10.0 9.899999999999848 0.0
9.897110148790565 10.0 0.0
9.784692609918244 10.0 0.0
9.66186512498486 10.0 0.0
9.527663687265571 10.0 0.0
9.381035096339392 10.0 0.0
9.220828555768257 10.0 0.0
9.045786767736512 10.0 0.0
8.854535961160305 10.0 0.0
8.645575169391027 10.0 0.0
8.417264413847017 10.0 0.0
8.167811885740178 10.0 0.0
7.895259826295246 10.0 0.0
7.597469242951631 10.0 0.0
7.272102969379938 10.0 0.0
6.916607540131873 10.0 0.0
6.528192895511704 10.0 0.0
6.103810708667616 10.0 0.0
5.640130319512691 10.0 0.0
5.13351278094435 10.0 0.0
4.579982132668816 10.0 0.0
3.975193910361222 10.0 0.0
3.314401822869852 10.0 0.0
2.592419885437257 10.0 0.0
1.803581725058137 10.0 0.0
0.9416964895740705 10.0 0.0
0.0 9.00010000000243 0.0
0.0 8.000200000005481 0.0
0.0 7.000300000005135 0.0
0.0 6.000400000002569 0.0
0.901790731451151 5.000409820926855 0.0
1.657200899774397 5.000334279910023 0.0
2.289991063707192 5.000271000893629 0.0
2.820065163538221 5.000217993483646 0.0
3.264096435579811 5.000173590356442 0.0
3.636051481595835 5.00013639485184 0.0
3.947629914072366 5.000105237008593 0.0
4.208632181002628 5.0000791367819 0.0
4.427267949625672 5.000057273205037 0.0
4.610414277633563 5.000038958572237 0.0
4.763831845154243 5.000023616815485 0.0
4.892346298799659 5.00001076537012 0.0
4.892346298799748 4.99998923462988 0.0
4.763831845154455 4.999976383184515 0.0
4.610414277633943 4.999961041427763 0.0
4.427267949626277 4.999942726794963 0.0
4.208632181003523 4.9999208632181 0.0
3.94762991407365 4.999894762991407 0.0
3.636051481597624 4.99986360514816 0.0
3.264096435582253 4.999826409643559 0.0
2.820065163541503 4.999782006516354 0.0
2.289991063711534 4.999728999106371 0.0
1.657200899778495 4.999665720089978 0.0
0.9017907314530094 4.999590179073145 0.0
0.0 3.999600000002013 0.0
0.0 2.999700000005187 0.0
0.0 1.99980000000512 0.0
0.0 0.9999000000025537 0.0
9.897889398521345 2.93573355845387 0.0
9.906568249974548 7.060009441434234 0.0
9.913122631074113 3.64016132281653 0.0
9.922462129543863 6.354535290629151 0.0
9.917693659967533 4.354211663134567 0.0
9.909873057440208 5.637584487339942 0.0
9.914183254994697 4.950672966925282 0.0
9.913885043715895 7.666887930262611 0.0
9.91009668007573 2.351889069770817 0.0
9.905135696074536 8.138152454502785 0.0
9.913397459621809 1.849999999997262 0.0
7.099302372137626 0.297750452375005 0.0
7.095143729410097 9.700359990366296 0.0
4.942912558701401 5.095838627899509 0.0
4.315009232304429 5.165022115481685 0.0
4.946182472483878 4.906763777264103 0.0
4.317967462990024 4.825955043772673 0.0
9.916390871492647 8.64999999999792 0.0
9.921504649680616 1.368376469890358 0.0
8.292538149791614 0.206877570318844 0.0
8.292538149793597 9.793122429681448 0.0
5.884594439766573 9.587645267048616 0.0
5.794826292691579 0.3794853783929359 0.0
9.913397459621425 9.049999999998557 0.0
9.908526577714177 0.9568239351922434 0.0
3.456851160380649 5.315740054130451 0.0
3.457889657868442 4.707121019609468 0.0
8.945214200703926 0.1503383337970344 0.0
8.950161364448409 9.8413906539257 0.0
9.913862335499305 4.055887885208452 0.0
9.916697353372683 4.650158482607802 0.0
9.919076340414442 6.049999999994006 0.0
9.906994308667635 5.25749687748192 0.0
9.917490342358025 6.655979201891897 0.0
9.915757520293784 7.343848891656911 0.0
9.910049507471042 3.363474386285078 0.0
9.914471988502868 2.647400064832979 0.0
9.91474124160965 9.337490423485129 0.0
9.916971008170838 0.6499999999994355 0.0
4.307157269264427 9.509674045029644 0.0
4.331527375865619 0.4401616696422582 0.0
9.45434939180249 9.878397030523757 0.0
9.457696120412969 0.1270877537061785 0.0
2.555070293622606 5.422044496190925 0.0
2.566232917480916 4.608001224030952 0.0
3.026511860837692 9.332320638257093 0.0
2.945561971800619 0.5895662714727601 0.0
7.7395404387124 0.2511088946967771 0.0
7.736379255744154 9.745848826372828 0.0
4.687135269408529 5.122111433928926 0.0
4.688420821504113 4.871895064967488 0.0
9.910554884115975 0.3448356354522978 0.0
9.911230082250466 9.65764729394159 0.0
9.921953841410854 6.851023993342036 0.0
9.912065178606017 5.448170483544033 0.0
9.911660025326261 3.861846960030188 0.0
9.914847467973438 3.14501593945607 0.0
9.913397459621425 5.849999999993703 0.0
9.913397459621425 7.849999999996735 0.0
9.906916878988277 2.15455769998631 0.0
9.913397459621425 8.349999999997479 0.0
9.909472363117661 1.640528221515488 0.0
9.913987325695956 1.152857110636247 0.0
9.913397459621425 8.849999999998241 0.0
0.9100099990995943 2.614215977520411 0.0
0.8395284981715456 7.451196254860987 0.0
9.723278867451556 9.898135916635193 0.0
9.723316350887044 0.09841820909386662 0.0
1.385819164827588 4.454539963646463 0.0
1.338343629665047 5.523111536005823 0.0
1.377179700550677 0.6809168304959698 0.0
1.418060461092743 9.285896715136046 0.0
9.91268220142518 0.1457914080939694 0.0
9.906737126737994 9.845745933882352 0.0
0.7108351382691361 6.537941170074089 0.0
1.527735020267026 6.915620208855231 0.0
1.630993885659103 7.838271825205868 0.0
2.232760943566823 7.370850737296832 0.0
2.243414218068206 6.688299277952821 0.0
2.779655053105118 7.021588754814074 0.0
2.80227799359795 7.632420170547022 0.0
3.282022065908813 7.305859666021318 0.0
3.327597298795347 7.857554136825748 0.0
3.743210251018715 7.549183328204379 0.0
3.716353232200752 7.062036086888612 0.0
4.111978858674101 7.27497101169417 0.0
4.104192177581432 6.879858986267289 0.0
4.436230765617037 7.045693351607117 0.0
4.430360014817357 6.703971783962796 0.0
4.732390145036301 6.849841042423394 0.0
5.056161327708878 5.095276573498806 0.0
5.111586796021131 4.999081142133581 0.0
5.169267363407189 5.09444870412406 0.0
5.223795108752053 4.996986220359468 0.0
5.281480803887719 5.092780870372803 0.0
5.335670761900611 4.994887492556936 0.0
5.393485214772442 5.090486192743301 0.0
5.447323082877892 4.992601527033996 0.0
5.505243219343024 5.087953380710069 0.0
5.558739102026105 4.990287787962959 0.0
5.616491581184779 5.085335255235766 0.0
5.669852346908056 4.9879269227514 0.0
5.727502713908907 5.082679981817038 0.0
5.780766004135139 4.988313988715834 0.0
5.838244881129535 5.080480568766611 0.0
5.891357695677371 4.986433849408193 0.0
5.948696036767613 5.077969900389505 0.0
6.001601341641615 4.981313698556656 0.0
6.058851024265095 5.074871552128682 0.0
6.111614020704875 4.978360695880202 0.0
6.168801161530775 5.072044953270978 0.0
6.221368818778567 4.975825765213497 0.0
6.278268309066882 5.066182320461055 0.0
6.330814273567539 4.972837984645718 0.0
6.387565032421376 5.062889771971895 0.0
6.437476667631405 4.971693683589553 0.0
[...]
POINT_DATA 2538
VECTORS disp float
1.3138659967554246e-11 2.555372862925909e-11 0.0
1.4567972247663404e-11 -3.4665584419255484e-11 0.0
0.0021999999986535967 5.700341088278398e-12 0.0
0.002199999974419359 -6.399325009660025e-11 0.0
0.0008605314990693917 0.00035559665632755135 0.0
0.00162211189838277 6.399485648189043e-5 0.0
0.0011483157041132556 7.581466675936524e-6 0.0
4.795788163990531e-14 -2.9013268944890788e-12 0.0
3.1868012909748323e-12 2.2033275457762137e-12 0.0
2.253897398469264e-12 -1.3492586817096284e-13 0.0
1.9618648222998913e-12 6.405631293182117e-15 0.0
1.313633937348232e-12 -1.328331757510751e-13 0.0
1.2162863655980386e-12 -5.292477402530859e-13 0.0
9.688139509704117e-13 -6.784442323874995e-13 0.0
8.215668358821982e-13 -1.0764677132543821e-12 0.0
5.516918615716645e-13 -1.4868954680332414e-12 0.0
7.652690659769113e-13 -2.049924146216348e-12 0.0
7.52270010514238e-13 -2.6092631862323602e-12 0.0
8.855125020382199e-13 -3.187187853019389e-12 0.0
1.0366852217163924e-12 -3.753082856275044e-12 0.0
1.0848264751854491e-12 -4.110628355584928e-12 0.0
1.342765173172706e-12 -4.6744829100432624e-12 0.0
1.365157769623784e-12 -4.9043691804448865e-12 0.0
1.4826422572337756e-12 -5.374547116806796e-12 0.0
1.6668499738774003e-12 -5.7538993244926386e-12 0.0
1.6921323395384242e-12 -6.096981534561462e-12 0.0
1.8332885453937653e-12 -6.559053350314797e-12 0.0
2.028815314116178e-12 -7.062130541860817e-12 0.0
2.2818136091505115e-12 -7.72306040535159e-12 0.0
2.213331596251687e-12 -8.438282671082562e-12 0.0
3.4615115902715078e-12 -1.0764372063211419e-11 0.0
1.093469807905885e-12 -7.943162413368053e-12 0.0
3.142571578328905e-5 -2.5804861916671823e-5 0.0
5.500769642905104e-5 -4.3854770741447584e-5 0.0
7.786288726249985e-5 -5.9666003647970226e-5 0.0
9.929430528855326e-5 -7.402177795760039e-5 0.0
0.00011966500197914175 -8.736444241044515e-5 0.0
0.00013941202036218026 -0.00010018818357366382 0.0
0.00015889832222345054 -0.00011237425538872521 0.0
0.00017788392448500742 -0.00012411341151888832 0.0
0.00019658578659045566 -0.00013554564054794112 0.0
0.00021510695070284854 -0.00014660407545424408 0.0
0.00023340776738544873 -0.00015744435284824896 0.0
0.0002516990784056025 -0.00016801270211376677 0.0
0.00026987941299270166 -0.00017830842626321699 0.0
0.00028802684133550494 -0.00018846526261419186 0.0
0.0003062102741790758 -0.0001983815545081296 0.0
0.0003242860894095689 -0.00020803448461263185 0.0
0.0003424066273332902 -0.0002175303123172629 0.0
0.00036062053989971356 -0.00022675770247012952 0.0
0.00037887646229676705 -0.0002357998978444291 0.0
0.0003972085607669596 -0.0002446628798608392 0.0
0.0004156135749110009 -0.0002533460765527026 0.0
0.0004341033163334056 -0.0002618443589475317 0.0
0.0004527885433374667 -0.0002701770112347941 0.0
0.00047146329048406853 -0.00027833266829348983 0.0
0.0004903934962799312 -0.00028630838721509054 0.0
0.0005093060745152448 -0.0002941006842117669 0.0
0.000528406360388654 -0.00030173977891193813 0.0
0.0005476211633562282 -0.0003091746568548029 0.0
0.0005670588254252514 -0.00031643720773514124 0.0
0.0005865111154386064 -0.00032357031704937305 0.0
0.0006062074938141316 -0.0003305426186579149 0.0
0.0006260367697827389 -0.0003373448581315159 0.0
0.0006460725322170229 -0.0003440742674130778 0.0
0.0006663115033229831 -0.0003507071233125974 0.0
0.0006867690536769157 -0.00035736980969014914 0.0
0.0007072163733976377 -0.00036387855197597777 0.0
0.0007279838757198487 -0.00037026172677574016 0.0
0.0007487335125331852 -0.0003763072961649796 0.0
0.0007695353048955731 -0.0003820600419441129 0.0
0.0007905252658680932 -0.00038766645776449466 0.0
0.0008114712848379628 -0.00039290481458829343 0.0
0.0008327201507367719 -0.00039792028577641383 0.0
0.0008542493438758062 -0.00040258710918271987 0.0
0.0008759763821405104 -0.00040713192027198647 0.0
0.0008980612952519389 -0.00041131508893533266 0.0
0.0009202468584135235 -0.0004153148680598562 0.0
0.0009426836403813463 -0.00041917242879785675 0.0
0.0009653490762793837 -0.0004226555507454406 0.0
0.0009880066547040315 -0.00042611133235053215 0.0
0.001010967624419234 -0.00042913375560579945 0.0
0.0010338731626021278 -0.0004318884750358861 0.0
0.0010570289284240618 -0.0004345209721036287 0.0
0.0010799411560387126 -0.00043690424664408455 0.0
0.001103298069280399 -0.0004390451888647358 0.0
0.0011262556669233462 -0.0004409076983273966 0.0
0.0011499158360486175 -0.0004426375049048751 0.0
0.001173424367023898 -0.0004442350460940016 0.0
0.0011971255419732474 -0.00044543510355933254 0.0
0.00122099100717042 -0.0004463902602287178 0.0
0.0012451135007140312 -0.0004467595452502076 0.0
0.0012691920777281455 -0.00044682980296013603 0.0
0.0012931264522223194 -0.00044646349470071504 0.0
0.001316599787110528 -0.00044582985461720005 0.0
0.0013387641572640625 -0.0004447021139123134 0.0
0.0013602015657636904 -0.00044353480933874835 0.0
0.001381466880967259 -0.00044151983527880773 0.0
0.0014017640191493158 -0.0004388851120070016 0.0
0.0014223909066983084 -0.0004358907814282955 0.0
0.0014439809966880581 -0.0004325261217715209 0.0
0.0014658612695440667 -0.0004295123259009032 0.0
0.001487110447789055 -0.0004264055450720509 0.0
0.0015096225658436577 -0.0004235160173800881 0.0
0.0015306512886236981 -0.00042013967147581097 0.0
0.0015514527123193195 -0.0004160656575617372 0.0
0.0015733019003495306 -0.00041100490930165445 0.0
0.0015939595932781604 -0.00040501183566135347 0.0
0.0016157703985651911 -0.00039843326869668514 0.0
0.0016369118794105576 -0.000391241591448746 0.0
0.0016584235822689536 -0.000383290252834857 0.0
0.001679808840010942 -0.00037423090603635746 0.0
0.001702265295836416 -0.00036479654707872783 0.0
0.001723746028068354 -0.0003545406344114091 0.0
0.001745338094486652 -0.00034350597845904976 0.0
0.0017674797438631887 -0.000331354452743232 0.0
0.001789693910131969 -0.00031859094788945844 0.0
0.0018121885395732619 -0.0003054583737739355 0.0
0.0018353903014526464 -0.00029151180827583645 0.0
0.0018586569146625898 -0.0002769489789452149 0.0
0.001881990499795021 -0.00026182194208433055 0.0
0.0019058811363161148 -0.0002459085467548307 0.0
0.001930483134119352 -0.00022903074695285327 0.0
0.001955563207047053 -0.00021130507782775545 0.0
0.0019811058828171635 -0.0001928122287582134 0.0
0.0020074353085813026 -0.00017325625438940675 0.0
0.0020349872009657833 -0.0001523215172950193 0.0
0.0020634001915320445 -0.00012984460741683124 0.0
0.0020929793245239585 -0.00010530905495764207 0.0
0.0021249980815660104 -7.750939508256465e-5 0.0
0.0021585209124520984 -4.519165199538546e-5 0.0
0.0021999999977548026 -1.0081529864993605e-11 0.0
0.0021999999943860997 -1.2513534800198467e-11 0.0
0.002199999997434255 -5.27855466244294e-12 0.0
0.0021999999969743817 -4.52875845391034e-12 0.0
0.002199999997413663 -3.054462152476232e-12 0.0
0.0021999999974311106 -2.1712135377990294e-12 0.0
0.002199999997438967 -1.589447759165807e-12 0.0
0.0021999999975584445 -1.1549740393367014e-12 0.0
0.002199999997557615 -7.570563514505155e-13 0.0
0.0021999999976540794 -4.703126817521514e-13 0.0
0.00219999999772696 -2.593964143560023e-13 0.0
0.0021999999978474793 -2.1604172374583732e-15 0.0
0.0021999999978938377 2.0572243184749057e-13 0.0
0.00219999999797185 4.853427055204805e-13 0.0
0.002199999998011491 7.757547987765496e-13 0.0
0.002199999998036831 1.1303280595482153e-12 0.0
0.002199999998062895 1.4925198732123087e-12 0.0
0.0021999999979474974 1.9496359301059903e-12 0.0
0.002199999998135947 2.289356961138557e-12 0.0
0.0021999999979465945 2.7303802043277234e-12 0.0
0.002199999998052559 3.0023534879737734e-12 0.0
0.002199999998020211 3.129364411766614e-12 0.0
0.002199999998215499 3.0306168512118867e-12 0.0
0.00219999999869814 3.316634371555115e-12 0.0
0.00219999999928578 2.0260589364641867e-12 0.0
0.002054150436306512 5.264091398139538e-5 0.0
0.0019232005284614542 7.641424503345291e-5 0.0
0.001802329372860729 7.569003296131682e-5 0.0
0.0016945816360033502 6.662123705100702e-5 0.0
0.0016227261784236733 -4.827910245627885e-6 0.0
0.0016204070064671455 -4.76099075478348e-5 0.0
0.001612360518902452 -8.64151019178685e-5 0.0
0.0015911479711113463 -0.00010662361202105542 0.0
0.001557485233062526 -0.0001104868178357369 0.0
0.001518028891562331 -0.0001042959546145072 0.0
0.0014754880116051247 -9.25209975371873e-5 0.0
0.0014320146913033318 -7.594577212441385e-5 0.0
0.0013870324736254484 -5.851918619706622e-5 0.0
0.0013406529469636294 -4.138432959056127e-5 0.0
0.0012899855391760413 -2.4603166787650532e-5 0.0
0.0012300297729842624 -8.742374254250888e-6 0.0
0.0010919788876932806 4.986694492933176e-5 0.0
0.001051230575545637 7.15126509784707e-5 0.0
0.0010168936643617868 8.75846448800949e-5 0.0
0.000986382488223499 0.00010205934218735555 0.0
0.0009581823565913162 0.00011595011717369565 0.0
0.0009325112892430502 0.00012990049794785514 0.0
0.0009089983336166931 0.00014474937172302772 0.0
0.0008885246384179164 0.0001602292127752126 0.0
0.0008726849145553103 0.00018091568935036975 0.0
0.0008604208388453543 0.0002003974606377498 0.0
0.000861618602532928 0.0002380770755167789 0.0
0.0008576865367032179 0.00028158563089803916 0.0
0.0007788209625469473 0.0003718538409863383 0.0
0.0006680711754508323 0.00037094689713660316 0.0
0.0005006182065051374 0.00031651204078499324 0.0
0.00028057527207583314 0.00020748120157799448 0.0
0.0005695797021652285 -0.0003059531517994706 0.0
0.0014810215246607655 -0.000403537140629091 0.0
0.0007121442882580762 -0.0003540815621279205 0.0
0.001329488822388682 -0.00042909628803066845 0.0
0.0008637232898607893 -0.0003919329127322431 0.0
0.001158064088979697 -0.0004256221298545928 0.0
0.0009982446118356777 -0.0004125606973980779 0.0
0.0016123071332095693 -0.000372172805906273 0.0
0.0004581171421367207 -0.0002631761267115048 0.0
0.0017165830827104123 -0.0003283157565590451 0.0
0.00036519373186199677 -0.0002205850408010801 0.0
3.463823114289766e-5 -8.221796386772315e-6 0.0
0.0021550063193133545 -1.1603847098471664e-6 0.0
0.0012267164511759509 1.589084472985607e-5 0.0
0.001396969074142111 -4.9705471662234307e-5 0.0
0.0010619868291321612 4.313798565340289e-5 0.0
0.0009475008124466123 0.00011902743771387487 0.0
0.0018308950632688187 -0.0002706561879554539 0.0
0.0002777586456717872 -0.00017557481040626047 0.0
2.87012565901363e-5 -9.763687240921182e-6 0.0
0.0021672268784436867 -3.360041352614741e-6 0.0
0.0021375726034729634 3.8361295911112085e-6 0.0
4.217365324556828e-5 -1.5740140503151255e-6 0.0
0.001926644324048495 -0.00020927518850059272 0.0
0.00020151555769765356 -0.00013026730806373716 0.0
0.0015186971061449464 -8.463313701374677e-5 0.0
0.000864973023949472 0.00016074184087641797 0.0
2.3111531266397133e-5 -8.755059913750237e-6 0.0
0.0021742256547819935 -4.227868297886313e-6 0.0
0.0007994999427608122 -0.0003774001732895448 0.0
0.0009295996483300653 -0.00040344209549290975 0.0
0.0012573623755397082 -0.0004294422564430933 0.0
0.0010690388017190668 -0.000418852881104095 0.0
0.0013951244414962117 -0.0004227938761325573 0.0
0.0015421601026211586 -0.00039289496652075196 0.0
0.0006552557178177784 -0.0003364574533423665 0.0
0.0005144143678029582 -0.0002869033674396685 0.0
0.0019999701307418473 -0.000158198555649042 0.0
0.00014373940998230908 -9.510981399431993e-5 0.0
0.0021224577240179046 1.0388661221563017e-5 0.0
5.9579031838520955e-5 5.003273750595851e-6 0.0
0.0021793901264868425 -6.601371764866936e-6 0.0
2.20308404297062e-5 -9.461978414401798e-6 0.0
0.0015997377679748902 -8.203012756833861e-5 0.0
0.0008277778935614027 0.00019397115354453167 0.0
0.0020946360058736336 1.4043480356459139e-5 0.0
9.506976873231234e-5 1.1537831789084924e-5 0.0
3.217684550620311e-5 -9.77449580882131e-6 0.0
0.0021608594122370615 -2.7403473479091947e-6 0.0
0.0013118237809868131 -1.6362258189910038e-5 0.0
0.001006095493703228 8.874013690427098e-5 0.0
8.108580256798138e-5 -5.3144984793281026e-5 0.0
0.002091131011971724 -8.833947687427787e-5 0.0
0.0014359773995433946 -0.00041589160549089965 0.0
0.0011135617385123436 -0.0004234455726690231 0.0
0.0007585297824614022 -0.00036672575838765154 0.0
0.0006115960297551987 -0.00032261910013068473 0.0
0.0012088303958699127 -0.000428021488697452 0.0
0.0016520466433336655 -0.0003580649624407059 0.0
0.0004210393122055476 -0.00024643021418344025 0.0
0.0017629640406210513 -0.0003077517371960472 0.0
0.0003266557942793181 -0.00020074323305809647 0.0
0.00023796390047741865 -0.0001523404696303471 0.0
0.001878153701095042 -0.0002410909658914029 0.0
0.0005685445338073198 0.00019743830727597303 0.0
0.0018421182411582709 2.4377017905358755e-5 0.0
0.002178961585375573 -1.1368984756843361e-5 0.0
1.9006749209895946e-5 -9.310924454951159e-6 0.0
0.0008178215094358797 0.00025349698765703805 0.0
0.001646195593365456 -2.7539741394523046e-5 0.0
0.00012256023685203952 2.08041027427236e-5 0.0
0.0021023548759233103 1.2817289184424741e-5 0.0
3.576585053874894e-5 -2.249489237702532e-5 0.0
0.00215224610779439 -3.808638668942117e-5 0.0
0.0017410667477826733 1.4889994596432224e-5 0.0
0.0017560752658625377 -1.3918775559296426e-6 0.0
0.0018820943021138042 1.2271517392470921e-5 0.0
0.001795850654264975 4.78844071373784e-6 0.0
0.001697515249236157 -1.6425004273705612e-5 0.0
0.0017199693304993952 2.1076657712330236e-6 0.0
0.0018173697692798875 1.6990461831170513e-5 0.0
0.0017463308403384058 2.0395504509510307e-5 0.0
0.0018418729688160754 2.7647718813926128e-5 0.0
0.0017768948307866233 3.299253366343278e-5 0.0
0.0016879842053034834 2.653862524723205e-5 0.0
0.0017171646762791136 3.781926347897005e-5 0.0
0.0016409035592483908 3.4068859500414735e-5 0.0
0.001665998592070112 4.117147153514206e-5 0.0
0.0015978772188101709 3.9880498465675573e-5 0.0
0.001621886701997781 4.280887474338359e-5 0.0
0.0012006380101112928 8.399188119003409e-7 0.0
0.0011363078946849802 -1.1606875679938257e-5 0.0
0.0011797070105845297 -1.1839972668754521e-5 0.0
0.0011258439217212994 -2.2894962674209745e-5 0.0
0.001164755981109165 -2.321225417079408e-5 0.0
0.0011177044209206915 -3.214686048003725e-5 0.0
0.0011528353034598187 -3.191556062274701e-5 0.0
0.001110038087895677 -3.974040261515153e-5 0.0
0.0011426102218393874 -3.907531157422375e-5 0.0
0.0011028837014941178 -4.622127680626145e-5 0.0
0.001133661238666287 -4.5108087004457806e-5 0.0
0.0010962438936035312 -5.1832424819973864e-5 0.0
0.0011257293307955537 -5.0813675596606426e-5 0.0
0.0010909849536356005 -5.6947563190370454e-5 0.0
0.001118572240191791 -5.5882729060894424e-5 0.0
0.0010851506229274264 -6.184771053185558e-5 0.0
0.0011118028393694958 -6.073666615376934e-5 0.0
0.00107859126338226 -6.666283946822889e-5 0.0
0.0011053628609037401 -6.559719188709457e-5 0.0
0.001073115708971627 -7.129435040281859e-5 0.0
0.001099487617939895 -7.044304406465614e-5 0.0
0.0010680011956429535 -7.598133128450405e-5 0.0
0.001093018193783969 -7.532730653769355e-5 0.0
0.0010628439404937638 -8.080177167359402e-5 0.0
0.001087517770507099 -8.031676047028312e-5 0.0
0.0010584730160607403 -8.561663043732221e-5 0.0
0.0010823484786864103 -8.547774584141122e-5 0.0
0.00105257945678501 -9.061631259057063e-5 0.0
0.001077030615102927 -9.086900934131582e-5 0.0
0.0010413085500283502 -9.668810038364849e-5 0.0
0.001073643567770449 -9.64034392804377e-5 0.0
0.0010430675084690329 -0.00010193025125932126 0.0
0.0010688074291747348 -0.00010226503835476466 0.0
0.0010397212079417363 -0.00010778562425894692 0.0
0.0010645220760414646 -0.00010841501487145483 0.0
0.0010373259956895555 -0.00011373415131459232 0.0
0.001060273502598376 -0.00011476581499261058 0.0
0.0010337437979029683 -0.00012014669611894189 0.0
0.0010720452258576449 -4.492832852652706e-5 0.0
0.0010561152633756531 -0.00012140683941591938 0.0
0.0010462094344773163 -7.163027969508758e-5 0.0
0.0010126486389124294 -0.00010344753851931569 0.0
0.001028307699023235 -0.00012690774606475855 0.0
0.0010518946382186952 -0.0001283451755941723 0.0
0.0010229767692926468 -0.0001341472898254104 0.0
0.0010000613646310417 -0.0001319406032001582 0.0
0.0009940724118250477 -0.00013944152171832026 0.0
0.001046629985529866 -0.00013602044851010876 0.0
0.0010760131683391907 -0.00012984181906608804 0.0
0.0010969410824653802 -9.651102888769687e-5 0.0
0.0010709026731505512 -0.0001378760947217874 0.0
0.00110229719810739 -0.0001307111240256933 0.0
0.0010960313172690584 -0.00013974140998348645 0.0
0.0009714577701312664 -0.00013694137490283633 0.0
0.0009666760177014571 -0.00014409521502634963 0.0
0.0011285393691518432 -0.00013198199248465176 0.0
0.0009425583574214824 -0.00014137198542797563 0.0
0.0009393904451763981 -0.00014865400232479519 0.0
0.0011228150788701891 -0.0001412652082056526 0.0
0.0011542773623134767 -0.00013392050478404528 0.0
0.0009135764369953348 -0.00014562289849512366 0.0
0.0009098546491670037 -0.00015300544920064926 0.0
0.0011492832207670419 -0.00014328522918351293 0.0
0.00118176423483267 -0.00013549235340815509 0.0
0.0008848307299194198 -0.0001495899997103826 0.0
0.0008808784897821973 -0.00015729655299078009 0.0
0.0011765654560309939 -0.00014551684827890867 0.0
0.0012101557138474639 -0.00013703613910720752 0.0
0.0008564987828453157 -0.00015293424086446476 0.0
0.0008508304124216015 -0.0001607853419756521 0.0
0.0012052730499382428 -0.00014745153856346517 0.0
0.0012392624112235902 -0.00013852437807980255 0.0
0.0008255444222616034 -0.00015606914828995714 0.0
0.0008206896657931493 -0.00016416331388258103 0.0
0.0007936734125482595 -0.00015935780202076593 0.0
0.0007986519113958567 -0.0001509819926488819 0.0
0.0011690298010562609 -0.00015560690793442347 0.0
0.0012341301744037323 -0.00014955379309096613 0.0
0.0012690487914639177 -0.00014003214692869895 0.0
0.0012749236783464195 -0.00012856317521756547 0.0
0.001122349139312868 -6.990533250292683e-5 0.0
0.0013061797970393356 -0.00012971862983338588 0.0
0.001312518147288651 -0.0001177569397616014 0.0
0.0013450450913398328 -0.00011842100773947885 0.0
0.000791298853683696 -0.00016791740848163565 0.0
0.0007631197187448712 -0.0001620192197597813 0.0
0.0008179196187035755 -0.00017290874364430406 0.0
0.0012628371395271428 -0.0001519008908441772 0.0
0.0007612959363341187 -0.0001707064387456435 0.0
0.0007327099474591426 -0.00016413105560883902 0.0
0.0011536460894869508 -4.869218270760605e-5 0.0
0.0007311024456575269 -0.00017249002797964038 0.0
0.0007024106008835769 -0.0001655769684123097 0.0
0.0007011209941098223 -0.0001740271040230992 0.0
0.0006727994527380151 -0.00016627211319264677 0.0
0.000673432245009536 -0.00015816937739195663 0.0
0.0006417911777050282 -0.00015880977835198702 0.0
0.0006429126419641281 -0.00015031352198362577 0.0
0.0006682514557384486 -0.00017443595196831374 0.0
0.0006087285455821981 -0.0001506446716562042 0.0
0.0006095496665373223 -0.00014201486996005702 0.0
0.0007003038054837421 -0.0001830317159524154 0.0
0.00067241138829881 -0.00018418240159721525 0.0
0.0005760573100131587 -0.00014136666637189522 0.0
0.0005754913169106899 -0.00013281154601487805 0.0
0.0013523473836875436 -0.00010628741129790765 0.0
0.0013863698716969875 -0.00010670350271659482 0.0
0.0006996745157917981 -0.00019227016081289154 0.0
0.0006723610303248684 -0.00019325597062296826 0.0
0.001394076911149049 -9.423605624326975e-5 0.0
0.0014298362541781953 -9.467638768057577e-5 0.0
0.0014203376610776065 -0.00010859464504370574 0.0
0.001464329049320228 -9.590210028427412e-5 0.0
0.001455479201113061 -0.00011026157612592658 0.0
0.0014998207163423104 -9.658173033649037e-5 0.0
0.0014931307714964193 -0.00011090670798599577 0.0
0.0015392597679072407 -9.582762983700172e-5 0.0
0.001528969712981047 -0.00011082118403396475 0.0
0.0015454908673771775 -8.239511254846625e-5 0.0
0.0015756264755026487 -9.60713724524369e-5 0.0
0.0015632189314113262 -0.00011138523123702205 0.0
0.0006996203472996006 -0.00020179102288044295 0.0
0.0005399873371464582 -0.00013152646382433563 0.0
0.0005384503478482133 -0.0001225619668040811 0.0
0.0015198567294748009 -0.00012678532368633292 0.0
0.0015528503860700804 -0.00012745038275978327 0.0
0.0015956587293185604 -0.0001119144287115904 0.0
0.0015121565224642886 -0.0001435553350121729 0.0
0.0006731476353013746 -0.0002027407615958294 0.0
0.0015854758217626515 -0.00012814675873513447 0.0
0.0016274421457797002 -0.00011225567103806042 0.0