# vtk DataFile Version 2.0
phase field modeling fracture
ASCII
DATASET UNSTRUCTURED_GRID
POINTS 2538 float
0.0 0.0 0.0
10.0 0.0 0.0
0.0 10.0 0.0
10.0 10.0 0.0
0.0 4.9995 0.0
0.0 5.0005 0.0
5.0 5.0 0.0
0.9416964895726688 0.0 0.0
1.803581725054446 0.0 0.0
2.592419885431098 0.0 0.0
3.314401822861676 0.0 0.0
3.975193910351406 0.0 0.0
4.579982132660152 0.0 0.0
5.133512780936812 0.0 0.0
5.640130319506143 0.0 0.0
6.103810708661955 0.0 0.0
6.528192895506818 0.0 0.0
6.916607540127679 0.0 0.0
7.272102969376355 0.0 0.0
7.597469242948583 0.0 0.0
7.895259826292669 0.0 0.0
8.167811885738017 0.0 0.0
8.417264413845215 0.0 0.0
8.645575169389538 0.0 0.0
8.854535961159101 0.0 0.0
9.045786767735546 0.0 0.0
9.220828555767493 0.0 0.0
9.38103509633881 0.0 0.0
9.527663687265145 0.0 0.0
9.661865124984566 0.0 0.0
9.784692609918062 0.0 0.0
9.897110148790482 0.0 0.0
10.0 0.09999999999992584 0.0
10.0 0.199999999999856 0.0
10.0 0.2999999999997771 0.0
10.0 0.3999999999996677 0.0
10.0 0.4999999999995511 0.0
10.0 0.5999999999994683 0.0
10.0 0.6999999999993983 0.0
10.0 0.7999999999993286 0.0
10.0 0.8999999999992587 0.0
10.0 0.9999999999991888 0.0
10.0 1.099999999999119 0.0
10.0 1.199999999999033 0.0
10.0 1.299999999998852 0.0
10.0 1.399999999998576 0.0
10.0 1.499999999998284 0.0
10.0 1.599999999997992 0.0
10.0 1.6999999999977 0.0
10.0 1.799999999997408 0.0
10.0 1.899999999997116 0.0
10.0 1.999999999996825 0.0
10.0 2.099999999996533 0.0
10.0 2.199999999996241 0.0
10.0 2.299999999995949 0.0
10.0 2.399999999995657 0.0
10.0 2.499999999995365 0.0
10.0 2.599999999995073 0.0
10.0 2.699999999994782 0.0
10.0 2.79999999999449 0.0
10.0 2.899999999994198 0.0
10.0 2.999999999993906 0.0
10.0 3.099999999993614 0.0
10.0 3.199999999993322 0.0
10.0 3.299999999993029 0.0
10.0 3.399999999992738 0.0
10.0 3.499999999992446 0.0
10.0 3.599999999992154 0.0
10.0 3.699999999991863 0.0
10.0 3.799999999991571 0.0
10.0 3.899999999991278 0.0
10.0 3.999999999991022 0.0
10.0 4.099999999991035 0.0
10.0 4.199999999991187 0.0
10.0 4.299999999991338 0.0
10.0 4.399999999991491 0.0
10.0 4.499999999991642 0.0
10.0 4.599999999991795 0.0
10.0 4.699999999991947 0.0
10.0 4.799999999992099 0.0
10.0 4.89999999999225 0.0
10.0 4.999999999992403 0.0
10.0 5.099999999992555 0.0
10.0 5.199999999992706 0.0
10.0 5.299999999992858 0.0
10.0 5.39999999999301 0.0
10.0 5.499999999993161 0.0
10.0 5.599999999993313 0.0
10.0 5.699999999993466 0.0
10.0 5.799999999993618 0.0
10.0 5.899999999993771 0.0
10.0 5.999999999993922 0.0
10.0 6.099999999994074 0.0
10.0 6.199999999994227 0.0
10.0 6.299999999994378 0.0
10.0 6.39999999999453 0.0
10.0 6.499999999994682 0.0
10.0 6.599999999994833 0.0
10.0 6.699999999994986 0.0
10.0 6.799999999995138 0.0
10.0 6.899999999995289 0.0
10.0 6.999999999995442 0.0
10.0 7.099999999995594 0.0
10.0 7.199999999995747 0.0
10.0 7.299999999995897 0.0
10.0 7.39999999999605 0.0
10.0 7.499999999996202 0.0
10.0 7.599999999996353 0.0
10.0 7.699999999996505 0.0
10.0 7.799999999996658 0.0
10.0 7.899999999996808 0.0
10.0 7.999999999996962 0.0
10.0 8.099999999997113 0.0
10.0 8.199999999997265 0.0
10.0 8.299999999997418 0.0
10.0 8.399999999997569 0.0
10.0 8.499999999997721 0.0
10.0 8.599999999997873 0.0
10.0 8.699999999998024 0.0
10.0 8.799999999998176 0.0
10.0 8.899999999998329 0.0
10.0 8.99999999999848 0.0
10.0 9.099999999998634 0.0
10.0 9.199999999998786 0.0
10.0 9.299999999998937 0.0
10.0 9.399999999999089 0.0
10.0 9.499999999999241 0.0
10.0 9.599999999999392 0.0
10.0 9.699999999999545 0.0
10.0 9.799999999999697 0.0
10.0 9.899999999999848 0.0
9.897110148790565 10.0 0.0
9.784692609918244 10.0 0.0
9.66186512498486 10.0 0.0
9.527663687265571 10.0 0.0
9.381035096339392 10.0 0.0
9.220828555768257 10.0 0.0
9.045786767736512 10.0 0.0
8.854535961160305 10.0 0.0
8.645575169391027 10.0 0.0
8.417264413847017 10.0 0.0
8.167811885740178 10.0 0.0
7.895259826295246 10.0 0.0
7.597469242951631 10.0 0.0
7.272102969379938 10.0 0.0
6.916607540131873 10.0 0.0
6.528192895511704 10.0 0.0
6.103810708667616 10.0 0.0
5.640130319512691 10.0 0.0
5.13351278094435 10.0 0.0
4.579982132668816 10.0 0.0
3.975193910361222 10.0 0.0
3.314401822869852 10.0 0.0
2.592419885437257 10.0 0.0
1.803581725058137 10.0 0.0
0.9416964895740705 10.0 0.0
0.0 9.00010000000243 0.0
0.0 8.000200000005481 0.0
0.0 7.000300000005135 0.0
0.0 6.000400000002569 0.0
0.901790731451151 5.000409820926855 0.0
1.657200899774397 5.000334279910023 0.0
2.289991063707192 5.000271000893629 0.0
2.820065163538221 5.000217993483646 0.0
3.264096435579811 5.000173590356442 0.0
3.636051481595835 5.00013639485184 0.0
3.947629914072366 5.000105237008593 0.0
4.208632181002628 5.0000791367819 0.0
4.427267949625672 5.000057273205037 0.0
4.610414277633563 5.000038958572237 0.0
4.763831845154243 5.000023616815485 0.0
4.892346298799659 5.00001076537012 0.0
4.892346298799748 4.99998923462988 0.0
4.763831845154455 4.999976383184515 0.0
4.610414277633943 4.999961041427763 0.0
4.427267949626277 4.999942726794963 0.0
4.208632181003523 4.9999208632181 0.0
3.94762991407365 4.999894762991407 0.0
3.636051481597624 4.99986360514816 0.0
3.264096435582253 4.999826409643559 0.0
2.820065163541503 4.999782006516354 0.0
2.289991063711534 4.999728999106371 0.0
1.657200899778495 4.999665720089978 0.0
0.9017907314530094 4.999590179073145 0.0
0.0 3.999600000002013 0.0
0.0 2.999700000005187 0.0
0.0 1.99980000000512 0.0
0.0 0.9999000000025537 0.0
9.897889398521345 2.93573355845387 0.0
9.906568249974548 7.060009441434234 0.0
9.913122631074113 3.64016132281653 0.0
9.922462129543863 6.354535290629151 0.0
9.917693659967533 4.354211663134567 0.0
9.909873057440208 5.637584487339942 0.0
9.914183254994697 4.950672966925282 0.0
9.913885043715895 7.666887930262611 0.0
9.91009668007573 2.351889069770817 0.0
9.905135696074536 8.138152454502785 0.0
9.913397459621809 1.849999999997262 0.0
7.099302372137626 0.297750452375005 0.0
7.095143729410097 9.700359990366296 0.0
4.942912558701401 5.095838627899509 0.0
4.315009232304429 5.165022115481685 0.0
4.946182472483878 4.906763777264103 0.0
4.317967462990024 4.825955043772673 0.0
9.916390871492647 8.64999999999792 0.0
9.921504649680616 1.368376469890358 0.0
8.292538149791614 0.206877570318844 0.0
8.292538149793597 9.793122429681448 0.0
5.884594439766573 9.587645267048616 0.0
5.794826292691579 0.3794853783929359 0.0
9.913397459621425 9.049999999998557 0.0
9.908526577714177 0.9568239351922434 0.0
3.456851160380649 5.315740054130451 0.0
3.457889657868442 4.707121019609468 0.0
8.945214200703926 0.1503383337970344 0.0
8.950161364448409 9.8413906539257 0.0
9.913862335499305 4.055887885208452 0.0
9.916697353372683 4.650158482607802 0.0
9.919076340414442 6.049999999994006 0.0
9.906994308667635 5.25749687748192 0.0
9.917490342358025 6.655979201891897 0.0
9.915757520293784 7.343848891656911 0.0
9.910049507471042 3.363474386285078 0.0
9.914471988502868 2.647400064832979 0.0
9.91474124160965 9.337490423485129 0.0
9.916971008170838 0.6499999999994355 0.0
4.307157269264427 9.509674045029644 0.0
4.331527375865619 0.4401616696422582 0.0
9.45434939180249 9.878397030523757 0.0
9.457696120412969 0.1270877537061785 0.0
2.555070293622606 5.422044496190925 0.0
2.566232917480916 4.608001224030952 0.0
3.026511860837692 9.332320638257093 0.0
2.945561971800619 0.5895662714727601 0.0
7.7395404387124 0.2511088946967771 0.0
7.736379255744154 9.745848826372828 0.0
4.687135269408529 5.122111433928926 0.0
4.688420821504113 4.871895064967488 0.0
9.910554884115975 0.3448356354522978 0.0
9.911230082250466 9.65764729394159 0.0
9.921953841410854 6.851023993342036 0.0
9.912065178606017 5.448170483544033 0.0
9.911660025326261 3.861846960030188 0.0
9.914847467973438 3.14501593945607 0.0
9.913397459621425 5.849999999993703 0.0
9.913397459621425 7.849999999996735 0.0
9.906916878988277 2.15455769998631 0.0
9.913397459621425 8.349999999997479 0.0
9.909472363117661 1.640528221515488 0.0
9.913987325695956 1.152857110636247 0.0
9.913397459621425 8.849999999998241 0.0
0.9100099990995943 2.614215977520411 0.0
0.8395284981715456 7.451196254860987 0.0
9.723278867451556 9.898135916635193 0.0
9.723316350887044 0.09841820909386662 0.0
1.385819164827588 4.454539963646463 0.0
1.338343629665047 5.523111536005823 0.0
1.377179700550677 0.6809168304959698 0.0
1.418060461092743 9.285896715136046 0.0
9.91268220142518 0.1457914080939694 0.0
9.906737126737994 9.845745933882352 0.0
0.7108351382691361 6.537941170074089 0.0
1.527735020267026 6.915620208855231 0.0
1.630993885659103 7.838271825205868 0.0
2.232760943566823 7.370850737296832 0.0
2.243414218068206 6.688299277952821 0.0
2.779655053105118 7.021588754814074 0.0
2.80227799359795 7.632420170547022 0.0
3.282022065908813 7.305859666021318 0.0
3.327597298795347 7.857554136825748 0.0
3.743210251018715 7.549183328204379 0.0
3.716353232200752 7.062036086888612 0.0
4.111978858674101 7.27497101169417 0.0
4.104192177581432 6.879858986267289 0.0
4.436230765617037 7.045693351607117 0.0
4.430360014817357 6.703971783962796 0.0
4.732390145036301 6.849841042423394 0.0
5.056161327708878 5.095276573498806 0.0
5.111586796021131 4.999081142133581 0.0
5.169267363407189 5.09444870412406 0.0
5.223795108752053 4.996986220359468 0.0
5.281480803887719 5.092780870372803 0.0
5.335670761900611 4.994887492556936 0.0
5.393485214772442 5.090486192743301 0.0
5.447323082877892 4.992601527033996 0.0
5.505243219343024 5.087953380710069 0.0
5.558739102026105 4.990287787962959 0.0
5.616491581184779 5.085335255235766 0.0
5.669852346908056 4.9879269227514 0.0
5.727502713908907 5.082679981817038 0.0
5.780766004135139 4.988313988715834 0.0
5.838244881129535 5.080480568766611 0.0
5.891357695677371 4.986433849408193 0.0
5.948696036767613 5.077969900389505 0.0
6.001601341641615 4.981313698556656 0.0
6.058851024265095 5.074871552128682 0.0
6.111614020704875 4.978360695880202 0.0
6.168801161530775 5.072044953270978 0.0
6.221368818778567 4.975825765213497 0.0
6.278268309066882 5.066182320461055 0.0
6.330814273567539 4.972837984645718 0.0
6.387565032421376 5.062889771971895 0.0
6.437476667631405 4.971693683589553 0.0
[...]
POINT_DATA 2538
VECTORS disp float
1.0613168031069469e-11 1.2610932685727258e-11 0.0
8.667873475373267e-13 -2.213485360145674e-12 0.0
0.0009000000001428786 1.4954877603519443e-12 0.0
0.0008999999792038892 -3.2797674013944495e-11 0.0
0.0004566176575348628 0.00023866959906204406 0.0
0.0006821944344286892 1.6492026957989688e-5 0.0
0.0005628428518657537 -5.8296511723854086e-5 0.0
-2.35584473420134e-12 -3.1894573738434797e-12 0.0
7.470257591529136e-13 9.09926977890288e-13 0.0
1.7868299492999567e-13 -1.1180921473202815e-12 0.0
1.368938324919999e-13 -8.665255324910985e-13 0.0
2.3757665278807544e-14 -1.0498730062565829e-12 0.0
1.240089805172256e-13 -1.0996468960123722e-12 0.0
8.764406863622644e-14 -1.1203509759534993e-12 0.0
8.704466876183861e-14 -1.3024358199314107e-12 0.0
1.3085126992241383e-13 -1.4298838974765959e-12 0.0
1.2107813226856363e-13 -1.471175645807273e-12 0.0
1.2729802719390664e-13 -1.4892856208313287e-12 0.0
1.3242327182027398e-13 -1.503420831570114e-12 0.0
1.2624427774388246e-13 -1.5137864290114551e-12 0.0
1.219392449003556e-13 -1.4887047718963752e-12 0.0
1.6428252460697662e-13 -1.528843333159477e-12 0.0
1.3587449116500674e-13 -1.5093243597066114e-12 0.0
1.4300537504667938e-13 -1.5381035494304679e-12 0.0
1.5237899391367226e-13 -1.6056553302794374e-12 0.0
1.241030170819293e-13 -1.6532354195605794e-12 0.0
1.2467224047073545e-13 -1.725335537651657e-12 0.0
1.1919353778661224e-13 -1.7929405706954754e-12 0.0
1.4691275158522644e-13 -1.8553226680325488e-12 0.0
1.1921247536299597e-13 -1.9041227187354956e-12 0.0
2.3668092982894727e-13 -1.980690968822544e-12 0.0
-9.701653804960451e-14 -2.083712498137041e-12 0.0
9.973463098190237e-6 -2.70014636992492e-6 0.0
1.818050082430233e-5 -5.087540762204412e-6 0.0
2.6367190654375347e-5 -7.485509876269595e-6 0.0
3.4329884642099764e-5 -9.905619337976962e-6 0.0
4.2221846279959326e-5 -1.235353622425473e-5 0.0
5.001207158581979e-5 -1.4817134910273214e-5 0.0
5.8310066269125586e-5 -1.7331842159505923e-5 0.0
6.685028827461221e-5 -1.992915796942812e-5 0.0
7.57311886876774e-5 -2.256205380974703e-5 0.0
8.499172164720673e-5 -2.5145302358121346e-5 0.0
9.441470504974429e-5 -2.7718333362571717e-5 0.0
0.00010407888378831045 -3.034631996476118e-5 0.0
0.00011334536251622462 -3.2821217698417354e-5 0.0
0.0001225851730030078 -3.517738079632504e-5 0.0
0.00013218462789240767 -3.779934221375459e-5 0.0
0.00014065250454867477 -4.040196924492611e-5 0.0
0.0001487309313116007 -4.281988242849773e-5 0.0
0.00015639423310732467 -4.487294821400684e-5 0.0
0.00016370787116667626 -4.6805521028426665e-5 0.0
0.00017083687941572785 -4.853972931911108e-5 0.0
0.00017799189059655203 -5.0163490582769965e-5 0.0
0.00018482061168141197 -5.176216743872747e-5 0.0
0.00019203409367912142 -5.326441783600213e-5 0.0
0.00019887449570091216 -5.486682760440928e-5 0.0
0.00020624559890200365 -5.641181988022931e-5 0.0
0.0002134290249309161 -5.799130464514438e-5 0.0
0.0002209057699483244 -5.9572950182176895e-5 0.0
0.000228460127084116 -6.108201197932923e-5 0.0
0.0002365084420978211 -6.260972241343042e-5 0.0
0.00024437581978197637 -6.416787900156341e-5 0.0
0.00025262457976403833 -6.577325612602197e-5 0.0
0.00026089296141653106 -6.734154046104365e-5 0.0
0.0002692146313464118 -6.897666885486399e-5 0.0
0.0002774919084730337 -7.055641279032011e-5 0.0
0.0002856569456272977 -7.234380969916456e-5 0.0
0.00029346296545774677 -7.386318234249553e-5 0.0
0.0003014926708918375 -7.500135380120166e-5 0.0
0.000310147294049742 -7.580866430068289e-5 0.0
0.00032121454110591973 -7.60767970977392e-5 0.0
0.0003350187769022349 -7.605971755387755e-5 0.0
0.00035018085958044796 -7.62151100743554e-5 0.0
0.0003636874387185683 -7.62437555249646e-5 0.0
0.0003765426839318437 -7.551952473230349e-5 0.0
0.000387668966751762 -7.507985339163221e-5 0.0
0.0003979069723162911 -7.498903804084109e-5 0.0
0.00040816874082302704 -7.487037580756445e-5 0.0
0.00041847376516522 -7.499709345244724e-5 0.0
0.00042824061865364413 -7.506343514833008e-5 0.0
0.000436948961179179 -7.567805176208797e-5 0.0
0.0004447015391035672 -7.638856647932717e-5 0.0
0.0004515099892301711 -7.735394170568373e-5 0.0
0.0004578196547936609 -7.83642044877616e-5 0.0
0.0004637017939288363 -7.95365771430677e-5 0.0
0.00046931952437732455 -8.095443427457008e-5 0.0
0.0004740900032249446 -8.219405829056525e-5 0.0
0.00048030876550865975 -8.322926935015145e-5 0.0
0.00048698243410390577 -8.40390075938837e-5 0.0
0.000494423916583066 -8.501116653618173e-5 0.0
0.0005019674996543323 -8.608817701229515e-5 0.0
0.0005094305266937955 -8.709612625652528e-5 0.0
0.000517058520567583 -8.824295447313594e-5 0.0
0.0005251513451449584 -8.93605382457065e-5 0.0
0.0005336586941243039 -9.027271283950686e-5 0.0
0.0005414881876212738 -9.107243478803987e-5 0.0
0.0005495157483532806 -9.179903241867653e-5 0.0
0.0005575415646404405 -9.24039018234688e-5 0.0
0.0005651343908868726 -9.298895301887132e-5 0.0
0.000572580690769402 -9.362519414441727e-5 0.0
0.0005802273955325815 -9.414222378220575e-5 0.0
0.0005879141626458755 -9.473188972890355e-5 0.0
0.0005954955302209083 -9.540013586877649e-5 0.0
0.0006033899298821784 -9.623015144427047e-5 0.0
0.0006112925279933172 -9.730354295550145e-5 0.0
0.0006191168430887815 -9.838060011914374e-5 0.0
0.0006272860476562981 -9.922364289834934e-5 0.0
0.0006351262367931367 -0.00010013362448164123 0.0
0.0006437650279245094 -0.00010085829864612369 0.0
0.0006529183299769766 -0.00010166527323686609 0.0
0.0006626905387726395 -0.00010208662115712404 0.0
0.0006727030773533689 -0.00010248615228591143 0.0
0.0006826939445465662 -0.00010218512209784907 0.0
0.000692181721457469 -0.00010109827847555482 0.0
0.0007010043180852353 -9.947460792956783e-5 0.0
0.0007105419578399346 -9.741688342513775e-5 0.0
0.0007203937532284399 -9.625698063145342e-5 0.0
0.0007288567737884281 -9.566066210978227e-5 0.0
0.0007372376694775097 -9.502818473294449e-5 0.0
0.0007451949189158076 -9.437191201967677e-5 0.0
0.0007528435182037523 -9.385068243758872e-5 0.0
0.0007610802974876802 -9.319582516938878e-5 0.0
0.0007701389031874139 -9.192419271229333e-5 0.0
0.0007787415671552283 -8.978448498213e-5 0.0
0.0007875507469496094 -8.690106218077739e-5 0.0
0.0007964219044300375 -8.325045211196038e-5 0.0
0.000806837643062572 -7.852637452833326e-5 0.0
0.0008177421901895579 -7.166201378161713e-5 0.0
0.0008279768446988058 -6.13820416344773e-5 0.0
0.0008433337221791844 -4.8744604852544494e-5 0.0
0.0008613050826798901 -3.165669475006305e-5 0.0
0.0009000000021863679 2.7175265143999955e-12 0.0
0.0008999999977424479 -2.605655603824216e-12 0.0
0.0008999999997798206 9.252707978900571e-13 0.0
0.0008999999991865383 3.9721513952169497e-13 0.0
0.0008999999996179514 7.679085044432681e-13 0.0
0.0008999999995180692 8.817293606387597e-13 0.0
0.0008999999996012803 8.358357031619292e-13 0.0
0.0008999999995885558 8.179117862200129e-13 0.0
0.0008999999995664377 8.286649264730552e-13 0.0
0.0008999999995774467 8.272214321652761e-13 0.0
0.0008999999995776325 8.926729762176569e-13 0.0
0.0008999999996022516 9.360466919727053e-13 0.0
0.000899999999589222 9.833847179177092e-13 0.0
0.0008999999995884987 1.0024653100159865e-12 0.0
0.000899999999578455 1.0050676052236408e-12 0.0
0.0008999999995558776 9.749927593567014e-13 0.0
0.0008999999995146966 9.318761974105047e-13 0.0
0.0008999999995309944 8.686784356809585e-13 0.0
0.0008999999994778588 8.826183262914601e-13 0.0
0.0008999999995897328 8.121452801052838e-13 0.0
0.0008999999995921008 7.8254223852128e-13 0.0
0.0008999999995825649 7.413772456323487e-13 0.0
0.0008999999997092965 6.7430079389058e-13 0.0
0.0008999999998583029 9.252627712013902e-13 0.0
0.0008999999998561 6.683767271492791e-13 0.0
0.0008385907799368177 1.4531035175829255e-5 0.0
0.0007928818306809912 2.0340505929674384e-5 0.0
0.0007506199445342142 2.048229917773766e-5 0.0
0.0007118905606610751 1.8270332240577148e-5 0.0
0.0006797066812080846 -1.7542056773073035e-5 0.0
0.0006777364541190113 -4.127621867228984e-5 0.0
0.0006766467008154204 -6.44067679609839e-5 0.0
0.000673345216149739 -8.036140990376245e-5 0.0
0.000668556425840814 -9.216643923098619e-5 0.0
0.0006616607828916148 -0.00010114298533205591 0.0
0.0006537539738674117 -0.00010674266604929982 0.0
0.000643863918945813 -0.00011037412497349734 0.0
0.0006346065209088448 -0.0001141780595223578 0.0
0.000624646187008882 -0.00011479764916894445 0.0
0.0006107595912902135 -0.0001097671336151971 0.0
0.0005932326445595015 -9.537791967973141e-5 0.0
0.0005477247471565912 -3.5315287066010966e-5 0.0
0.0005367855635659554 -2.0866362883294343e-5 0.0
0.0005273299816377448 -9.549770633600437e-6 0.0
0.0005184131954780616 1.969364051330594e-6 0.0
0.0005095902687063731 1.405083150623293e-5 0.0
0.0005015788891223287 2.768324021704943e-5 0.0
0.0004934172406259391 4.33776793560195e-5 0.0
0.00048523539206498767 6.0079668950354886e-5 0.0
0.00047784285245634957 8.236800524660993e-5 0.0
0.0004696344948973923 0.00010626086582035453 0.0
0.000464380014486699 0.00013463410249881696 0.0
0.00045477535069711033 0.0001782149701120288 0.0
0.0004020120337131655 0.0002407513429089288 0.0
0.00033640027677868086 0.0002401455576240043 0.0
0.0002806394239978212 0.00022716350014402462 0.0
0.00021973940346159344 0.0001802568722224884 0.0
0.00023859562822706475 -5.878025787653163e-5 0.0
0.0005919983097275697 -8.908718576335134e-5 0.0
0.0002965725692032141 -6.706419131670005e-5 0.0
0.0005373889876511056 -8.51989696541199e-5 0.0
0.0003828641617631351 -6.917623401513449e-5 0.0
0.00048236211027390504 -7.926136417308696e-5 0.0
0.0004403554903974455 -7.246278941340972e-5 0.0
0.0006405373586525012 -9.352793453541807e-5 0.0
0.00019477455408765227 -5.0436033097402494e-5 0.0
0.0006872694092357049 -9.266017568743896e-5 0.0
0.00015880214728024916 -4.063620461403224e-5 0.0
2.209502422620012e-5 -3.4203631279377054e-6 0.0
0.0008685595908711705 5.989837799784778e-7 0.0
0.00056637596415043 -6.801753264642879e-5 0.0
0.0006292005123044374 -0.0001067165543493018 0.0
0.0005239380980066777 -4.067178913731147e-5 0.0
0.00048736179309887267 1.100054635834149e-5 0.0
0.0007332879209813615 -8.756811540993644e-5 0.0
0.0001184673682211278 -2.893161883174545e-5 0.0
1.586344300097519e-5 -2.4114489992605836e-6 0.0
0.0008780243010459365 2.2968044239528263e-8 0.0
0.000856458206319661 8.000325467400646e-8 0.0
2.6843045004924853e-5 -3.967495736204436e-6 0.0
0.0007663551973088601 -8.148957478386802e-5 0.0
7.9704289704237e-5 -1.8983155244581975e-5 0.0
0.0006593999536125682 -9.115743168879804e-5 0.0
0.00045330980412050536 5.3442458584053714e-5 0.0
1.1771632500067176e-5 -1.88534746473416e-6 0.0
0.0008826994519190788 -9.932791267089149e-8 0.0
0.0003436039749391753 -6.804786587540429e-5 0.0
0.00041308661665140833 -7.044967809865724e-5 0.0
0.0005124835747525794 -8.214050239831845e-5 0.0
0.0004602574992643284 -7.588122208534462e-5 0.0
0.0005614220113491577 -8.742376293104854e-5 0.0
0.000614028694547924 -9.144093625375765e-5 0.0
0.0002739655764587219 -6.458941409600059e-5 0.0
0.00021629994277615598 -5.5400166840806177e-5 0.0
0.0007929984943498318 -7.108888990851483e-5 0.0
5.3159153971628914e-5 -1.2949875991143758e-5 0.0
0.0008531455561635576 -1.0388475400604866e-6 0.0
3.0413650563410392e-5 -3.01901720108559e-6 0.0
0.0008849154612078767 -1.163897821084882e-6 0.0
1.0403322892983081e-5 -1.9119014325776726e-6 0.0
0.0006789462578576443 -6.904316820469936e-5 0.0
0.0004360276694154631 9.544465831114785e-5 0.0
0.0008448019258094783 -1.7917901890474629e-6 0.0
4.587708316964357e-5 4.665838544572615e-7 0.0
1.895828724295156e-5 -2.948193017181708e-6 0.0
0.0008733262817287375 3.549885777075364e-7 0.0
0.0006037123369434473 -0.00010406022436362881 0.0
0.0005070472256588447 -1.2387843693449492e-5 0.0
2.89947415303119e-5 -6.619063906063226e-6 0.0
0.0008304829108313393 -4.7227009760662344e-5 0.0
0.00057619156774426 -8.888388299998068e-5 0.0
0.000470811539464943 -7.864473786587542e-5 0.0
0.00031712086848812267 -6.719582261178916e-5 0.0
0.000255820458832758 -6.234563413095413e-5 0.0
0.0004975439881816281 -8.024120272970956e-5 0.0
0.00065762839253751 -9.384781259458245e-5 0.0
0.0001808038781272369 -4.66794058433083e-5 0.0
0.0007073518871076676 -9.042570053140234e-5 0.0
0.0001422075731419074 -3.535667438409626e-5 0.0
9.821557007256398e-5 -2.3468990104834948e-5 0.0
0.0007492864633509744 -8.542054676793126e-5 0.0
0.0003013297378948363 0.0001419964541211845 0.0
0.0007648279040920249 -3.6811350071699544e-6 0.0
0.0008831513379854621 -3.325753437570507e-6 0.0
8.464611756643644e-6 -1.5835581734314576e-6 0.0
0.0004235209772795808 0.0001532779717242007 0.0
0.0006915917599126815 -2.947215986519622e-5 0.0
6.097029114147575e-5 9.39419175963047e-6 0.0
0.0008541913336877077 9.430697983086195e-7 0.0
1.2940916539283994e-5 -2.7268222873003883e-6 0.0
0.0008613340932520946 -1.9792594330786903e-5 0.0
0.0007292283778808713 -6.273015005878812e-6 0.0
0.0007341035985196413 -2.2484101686165117e-5 0.0
0.0007723400464370143 -1.2238256563617921e-5 0.0
0.0007397721270154902 -2.5074409822510987e-5 0.0
0.0007092209310481611 -3.933998680838424e-5 0.0
0.0007089617732376017 -3.8013862848315025e-5 0.0
0.0007384648231262892 -2.3784258080447852e-5 0.0
0.0007077422567399882 -3.196800178704755e-5 0.0
0.0007389180504381415 -1.9983267474759418e-5 0.0
0.0007091459114071781 -2.5041207174996854e-5 0.0
0.0006808885863107916 -3.707342123883337e-5 0.0
0.0006816443475909109 -2.8352795336557547e-5 0.0
0.0006573612478123782 -3.816677643328334e-5 0.0
0.0006577090320018176 -2.9915268211596427e-5 0.0
0.0006368188645308017 -3.750295645097975e-5 0.0
0.0006373180498741702 -2.857304884646943e-5 0.0
0.0005574680478238524 -4.8695986499431176e-5 0.0
0.0005510838242012042 -4.9172497027964355e-5 0.0
0.000548014424758276 -4.118616835438231e-5 0.0
0.0005403950219022853 -4.461199842789384e-5 0.0
0.0005389585694698563 -3.722600621780803e-5 0.0
0.0005311744592931958 -4.01771681858142e-5 0.0
0.0005308866718213195 -3.345874767813644e-5 0.0
0.0005228907905975481 -3.631540490481863e-5 0.0
0.0005240769083129223 -3.0852765183716914e-5 0.0
0.0005153283282663678 -3.420146325633775e-5 0.0
0.0005177965225690086 -2.949272310494831e-5 0.0
0.0005091261108666669 -3.199847105529002e-5 0.0
0.0005122498972890832 -2.7889881940731474e-5 0.0
0.0005038600874737448 -2.966228195068192e-5 0.0
0.0005072391525102641 -2.586550890296982e-5 0.0
0.00049884057217083 -2.7477781829460115e-5 0.0
0.0005027591191587387 -2.4274716393012026e-5 0.0
0.0004939409065268877 -2.6117840783641217e-5 0.0
0.0004984820079377592 -2.310520881313431e-5 0.0
0.0004897630248032293 -2.4458802724980618e-5 0.0
0.0004945616459728124 -2.170378703601077e-5 0.0
0.000485894422102665 -2.298473581440028e-5 0.0
0.0004906606232460768 -2.0561463289979414e-5 0.0
0.00048219883013863257 -2.1828928187618218e-5 0.0
0.0004871480418058785 -1.9714820417316712e-5 0.0
0.00047897101873552216 -2.090100466987596e-5 0.0
0.00048380497952119924 -1.887101132581446e-5 0.0
0.000475473100195913 -2.0251487051226674e-5 0.0
0.0004805333000629627 -1.8304788795162888e-5 0.0
0.0004704342976813908 -2.0080027851227998e-5 0.0
0.00047782592583388517 -1.7930163287356743e-5 0.0
0.0004690498492916462 -1.9080370650306858e-5 0.0
0.0004749772878423558 -1.7570152034374225e-5 0.0
0.0004664922441009196 -1.877221172814101e-5 0.0
0.00047233493788863745 -1.7491571330910156e-5 0.0
0.00046431322552741694 -1.8647513405258607e-5 0.0
0.00046976366047373933 -1.7571349904488015e-5 0.0
0.0004618962402264901 -1.867938763292736e-5 0.0
0.0005092049751420066 -3.90546899884529e-5 0.0
0.00046733415791749746 -1.782244260305339e-5 0.0
0.0004839807357860382 -2.7470646910783378e-5 0.0
0.00046083410224409386 -2.0832477579625027e-5 0.0
0.00045907981870148685 -1.9033155681131776e-5 0.0
0.0004649744526736721 -1.8292035450706258e-5 0.0
0.00045634677759399505 -1.9554455396679337e-5 0.0
0.00045031778896406936 -2.020283248971282e-5 0.0
0.00044732364451352687 -2.0756789838585932e-5 0.0
0.0004623373433551645 -1.8973002518318886e-5 0.0
0.00047075818609190886 -1.765020081540777e-5 0.0
0.00048279703486659847 -1.6528589571201814e-5 0.0
0.0004682756311286375 -1.850322946146496e-5 0.0
0.0004770496091320534 -1.702927610974957e-5 0.0
0.0004743005937565795 -1.8140625525009752e-5 0.0
0.00044101138404352907 -2.1333576121289737e-5 0.0
0.0004383715301899794 -2.1836069260515176e-5 0.0
0.0004832229790180728 -1.6551314975422322e-5 0.0
0.00043103516100981493 -2.2408142576009954e-5 0.0
0.00042884074539598137 -2.2864663605708924e-5 0.0
0.0004807158688301652 -1.7813068879866912e-5 0.0
0.0004891990186594741 -1.627028214473564e-5 0.0
0.0004203329268494671 -2.3416924001862912e-5 0.0
0.000417925338821121 -2.3834695504712243e-5 0.0
0.00048698635040209874 -1.7658322946404278e-5 0.0
0.0004956905201523994 -1.6012115079145393e-5 0.0
0.0004088993094269076 -2.425812340390386e-5 0.0
0.00040625883403784925 -2.4826914717835624e-5 0.0
0.0004934944898633756 -1.763199487720578e-5 0.0
0.0005025415072265867 -1.5849018038774396e-5 0.0
0.00039657731170526333 -2.5127888858963848e-5 0.0
0.00039305353143766366 -2.5715880209375263e-5 0.0
0.000500485941932183 -1.7621861370105125e-5 0.0
0.0005097071372034642 -1.5728254232349893e-5 0.0
0.0003821849482806019 -2.594825309655891e-5 0.0
0.00037881498401077347 -2.651124081773092e-5 0.0
0.00036650619407852436 -2.6743366213089616e-5 0.0
0.00037010111453733086 -2.629298175255398e-5 0.0
0.000490801814527303 -1.942359592221334e-5 0.0
0.0005076215843225183 -1.7709336055304724e-5 0.0
0.000517154329519338 -1.5673168814576803e-5 0.0
0.0005194701981268424 -1.3669967448248913e-5 0.0
0.0004980599867225066 -1.9324191508335103e-5 0.0
0.0005273602011599864 -1.3506680912258393e-5 0.0
0.0005298281928631016 -1.1536173834244411e-5 0.0
0.000538131660204611 -1.124077915664362e-5 0.0
0.0003640951993503223 -2.7384207923098648e-5 0.0
0.00035133234444932094 -2.75771488118048e-5 0.0
0.00037632101485829313 -2.7332010377182697e-5 0.0
0.0005148191577993914 -1.7917247927936798e-5 0.0
0.00034905353467728925 -2.8260724324565147e-5 0.0
0.0003366765146820818 -2.8439288968012472e-5 0.0
0.0005148841061408838 -2.416483392789662e-5 0.0
0.00033450996951336833 -2.9118681631630034e-5 0.0
0.0003225448134740934 -2.9203557843105616e-5 0.0
0.000320488738150575 -2.997826078357226e-5 0.0
0.00030909330176009123 -2.9812623410218913e-5 0.0
0.00031076972255709127 -2.9222716883717468e-5 0.0
0.00029651840380882 -2.9690011459669648e-5 0.0
0.00029842552768984414 -2.910727476153885e-5 0.0
0.00030562183171943275 -3.070179488046461e-5 0.0
0.00028309875022297784 -2.938291138703361e-5 0.0
0.00028489577340776276 -2.8886156162445677e-5 0.0
0.0003185260101483292 -3.094391274628028e-5 0.0
0.0003057692305036925 -3.17223888402083e-5 0.0
0.0002700363690098307 -2.8920193202573122e-5 0.0
0.00027122459714976337 -2.8546680543824738e-5 0.0
0.0005408383374129196 -9.415413102345402e-6 0.0
0.0005496179571599646 -9.0476707486466e-6 0.0
0.0003166075169342623 -3.208575095291937e-5 0.0
0.0003041553189730473 -3.282624621746979e-5 0.0
0.0005524058349661266 -7.336754192400736e-6 0.0
0.0005617486949818548 -6.932912754995008e-6 0.0
0.000558487301633984 -8.987962729197285e-6 0.0
0.0005709798078112098 -6.7341851652281705e-6 0.0
0.0005680053330831895 -9.072506488291233e-6 0.0
0.0005809031599340754 -6.625555247759673e-6 0.0
0.0005786169967520896 -9.104184620986321e-6 0.0
0.0005923760986135884 -6.358879046680733e-6 0.0
0.0005890570169711238 -9.079524416910253e-6 0.0
0.0005944677741404231 -4.33111797727163e-6 0.0
0.0006033509251696056 -6.3073827415974e-6 0.0
0.0005994426832342413 -9.320769871592562e-6 0.0
0.00031490921129016764 -3.333124455079994e-5 0.0
0.00025554860274649635 -2.8374886504914924e-5 0.0
0.00025637366417594857 -2.8037881530413698e-5 0.0
0.0005861460509343001 -1.2568682644786719e-5 0.0
0.0005961917506193059 -1.3048116587021038e-5 0.0
0.0006097357897506336 -9.632876062824503e-6 0.0
0.0005837945415030672 -1.6634098131231555e-5 0.0
0.00030285546927557666 -3.405792634265707e-5 0.0
0.0006065562994998992 -1.3709174293010084e-5 0.0
0.0006202780381261702 -1.0013950345844815e-5 0.0
0.0003132440007169786 -3.47210987170365e-5 0.0
0.00030152410360002717 -3.54482351925592e-5 0.0
0.0002914682965013648 -3.458827697461324e-5 0.0