# vtk DataFile Version 2.0
phase field modeling fracture
ASCII
DATASET UNSTRUCTURED_GRID
POINTS 2538 float
0.0 0.0 0.0
10.0 0.0 0.0
0.0 10.0 0.0
10.0 10.0 0.0
0.0 4.9995 0.0
0.0 5.0005 0.0
5.0 5.0 0.0
0.9416964895726688 0.0 0.0
1.803581725054446 0.0 0.0
2.592419885431098 0.0 0.0
3.314401822861676 0.0 0.0
3.975193910351406 0.0 0.0
4.579982132660152 0.0 0.0
5.133512780936812 0.0 0.0
5.640130319506143 0.0 0.0
6.103810708661955 0.0 0.0
6.528192895506818 0.0 0.0
6.916607540127679 0.0 0.0
7.272102969376355 0.0 0.0
7.597469242948583 0.0 0.0
7.895259826292669 0.0 0.0
8.167811885738017 0.0 0.0
8.417264413845215 0.0 0.0
8.645575169389538 0.0 0.0
8.854535961159101 0.0 0.0
9.045786767735546 0.0 0.0
9.220828555767493 0.0 0.0
9.38103509633881 0.0 0.0
9.527663687265145 0.0 0.0
9.661865124984566 0.0 0.0
9.784692609918062 0.0 0.0
9.897110148790482 0.0 0.0
10.0 0.09999999999992584 0.0
10.0 0.199999999999856 0.0
10.0 0.2999999999997771 0.0
10.0 0.3999999999996677 0.0
10.0 0.4999999999995511 0.0
10.0 0.5999999999994683 0.0
10.0 0.6999999999993983 0.0
10.0 0.7999999999993286 0.0
10.0 0.8999999999992587 0.0
10.0 0.9999999999991888 0.0
10.0 1.099999999999119 0.0
10.0 1.199999999999033 0.0
10.0 1.299999999998852 0.0
10.0 1.399999999998576 0.0
10.0 1.499999999998284 0.0
10.0 1.599999999997992 0.0
10.0 1.6999999999977 0.0
10.0 1.799999999997408 0.0
10.0 1.899999999997116 0.0
10.0 1.999999999996825 0.0
10.0 2.099999999996533 0.0
10.0 2.199999999996241 0.0
10.0 2.299999999995949 0.0
10.0 2.399999999995657 0.0
10.0 2.499999999995365 0.0
10.0 2.599999999995073 0.0
10.0 2.699999999994782 0.0
10.0 2.79999999999449 0.0
10.0 2.899999999994198 0.0
10.0 2.999999999993906 0.0
10.0 3.099999999993614 0.0
10.0 3.199999999993322 0.0
10.0 3.299999999993029 0.0
10.0 3.399999999992738 0.0
10.0 3.499999999992446 0.0
10.0 3.599999999992154 0.0
10.0 3.699999999991863 0.0
10.0 3.799999999991571 0.0
10.0 3.899999999991278 0.0
10.0 3.999999999991022 0.0
10.0 4.099999999991035 0.0
10.0 4.199999999991187 0.0
10.0 4.299999999991338 0.0
10.0 4.399999999991491 0.0
10.0 4.499999999991642 0.0
10.0 4.599999999991795 0.0
10.0 4.699999999991947 0.0
10.0 4.799999999992099 0.0
10.0 4.89999999999225 0.0
10.0 4.999999999992403 0.0
10.0 5.099999999992555 0.0
10.0 5.199999999992706 0.0
10.0 5.299999999992858 0.0
10.0 5.39999999999301 0.0
10.0 5.499999999993161 0.0
10.0 5.599999999993313 0.0
10.0 5.699999999993466 0.0
10.0 5.799999999993618 0.0
10.0 5.899999999993771 0.0
10.0 5.999999999993922 0.0
10.0 6.099999999994074 0.0
10.0 6.199999999994227 0.0
10.0 6.299999999994378 0.0
10.0 6.39999999999453 0.0
10.0 6.499999999994682 0.0
10.0 6.599999999994833 0.0
10.0 6.699999999994986 0.0
10.0 6.799999999995138 0.0
10.0 6.899999999995289 0.0
10.0 6.999999999995442 0.0
10.0 7.099999999995594 0.0
10.0 7.199999999995747 0.0
10.0 7.299999999995897 0.0
10.0 7.39999999999605 0.0
10.0 7.499999999996202 0.0
10.0 7.599999999996353 0.0
10.0 7.699999999996505 0.0
10.0 7.799999999996658 0.0
10.0 7.899999999996808 0.0
10.0 7.999999999996962 0.0
10.0 8.099999999997113 0.0
10.0 8.199999999997265 0.0
10.0 8.299999999997418 0.0
10.0 8.399999999997569 0.0
10.0 8.499999999997721 0.0
10.0 8.599999999997873 0.0
10.0 8.699999999998024 0.0
10.0 8.799999999998176 0.0
10.0 8.899999999998329 0.0
10.0 8.99999999999848 0.0
10.0 9.099999999998634 0.0
10.0 9.199999999998786 0.0
10.0 9.299999999998937 0.0
10.0 9.399999999999089 0.0
10.0 9.499999999999241 0.0
10.0 9.599999999999392 0.0
10.0 9.699999999999545 0.0
10.0 9.799999999999697 0.0
10.0 9.899999999999848 0.0
9.897110148790565 10.0 0.0
9.784692609918244 10.0 0.0
9.66186512498486 10.0 0.0
9.527663687265571 10.0 0.0
9.381035096339392 10.0 0.0
9.220828555768257 10.0 0.0
9.045786767736512 10.0 0.0
8.854535961160305 10.0 0.0
8.645575169391027 10.0 0.0
8.417264413847017 10.0 0.0
8.167811885740178 10.0 0.0
7.895259826295246 10.0 0.0
7.597469242951631 10.0 0.0
7.272102969379938 10.0 0.0
6.916607540131873 10.0 0.0
6.528192895511704 10.0 0.0
6.103810708667616 10.0 0.0
5.640130319512691 10.0 0.0
5.13351278094435 10.0 0.0
4.579982132668816 10.0 0.0
3.975193910361222 10.0 0.0
3.314401822869852 10.0 0.0
2.592419885437257 10.0 0.0
1.803581725058137 10.0 0.0
0.9416964895740705 10.0 0.0
0.0 9.00010000000243 0.0
0.0 8.000200000005481 0.0
0.0 7.000300000005135 0.0
0.0 6.000400000002569 0.0
0.901790731451151 5.000409820926855 0.0
1.657200899774397 5.000334279910023 0.0
2.289991063707192 5.000271000893629 0.0
2.820065163538221 5.000217993483646 0.0
3.264096435579811 5.000173590356442 0.0
3.636051481595835 5.00013639485184 0.0
3.947629914072366 5.000105237008593 0.0
4.208632181002628 5.0000791367819 0.0
4.427267949625672 5.000057273205037 0.0
4.610414277633563 5.000038958572237 0.0
4.763831845154243 5.000023616815485 0.0
4.892346298799659 5.00001076537012 0.0
4.892346298799748 4.99998923462988 0.0
4.763831845154455 4.999976383184515 0.0
4.610414277633943 4.999961041427763 0.0
4.427267949626277 4.999942726794963 0.0
4.208632181003523 4.9999208632181 0.0
3.94762991407365 4.999894762991407 0.0
3.636051481597624 4.99986360514816 0.0
3.264096435582253 4.999826409643559 0.0
2.820065163541503 4.999782006516354 0.0
2.289991063711534 4.999728999106371 0.0
1.657200899778495 4.999665720089978 0.0
0.9017907314530094 4.999590179073145 0.0
0.0 3.999600000002013 0.0
0.0 2.999700000005187 0.0
0.0 1.99980000000512 0.0
0.0 0.9999000000025537 0.0
9.897889398521345 2.93573355845387 0.0
9.906568249974548 7.060009441434234 0.0
9.913122631074113 3.64016132281653 0.0
9.922462129543863 6.354535290629151 0.0
9.917693659967533 4.354211663134567 0.0
9.909873057440208 5.637584487339942 0.0
9.914183254994697 4.950672966925282 0.0
9.913885043715895 7.666887930262611 0.0
9.91009668007573 2.351889069770817 0.0
9.905135696074536 8.138152454502785 0.0
9.913397459621809 1.849999999997262 0.0
7.099302372137626 0.297750452375005 0.0
7.095143729410097 9.700359990366296 0.0
4.942912558701401 5.095838627899509 0.0
4.315009232304429 5.165022115481685 0.0
4.946182472483878 4.906763777264103 0.0
4.317967462990024 4.825955043772673 0.0
9.916390871492647 8.64999999999792 0.0
9.921504649680616 1.368376469890358 0.0
8.292538149791614 0.206877570318844 0.0
8.292538149793597 9.793122429681448 0.0
5.884594439766573 9.587645267048616 0.0
5.794826292691579 0.3794853783929359 0.0
9.913397459621425 9.049999999998557 0.0
9.908526577714177 0.9568239351922434 0.0
3.456851160380649 5.315740054130451 0.0
3.457889657868442 4.707121019609468 0.0
8.945214200703926 0.1503383337970344 0.0
8.950161364448409 9.8413906539257 0.0
9.913862335499305 4.055887885208452 0.0
9.916697353372683 4.650158482607802 0.0
9.919076340414442 6.049999999994006 0.0
9.906994308667635 5.25749687748192 0.0
9.917490342358025 6.655979201891897 0.0
9.915757520293784 7.343848891656911 0.0
9.910049507471042 3.363474386285078 0.0
9.914471988502868 2.647400064832979 0.0
9.91474124160965 9.337490423485129 0.0
9.916971008170838 0.6499999999994355 0.0
4.307157269264427 9.509674045029644 0.0
4.331527375865619 0.4401616696422582 0.0
9.45434939180249 9.878397030523757 0.0
9.457696120412969 0.1270877537061785 0.0
2.555070293622606 5.422044496190925 0.0
2.566232917480916 4.608001224030952 0.0
3.026511860837692 9.332320638257093 0.0
2.945561971800619 0.5895662714727601 0.0
7.7395404387124 0.2511088946967771 0.0
7.736379255744154 9.745848826372828 0.0
4.687135269408529 5.122111433928926 0.0
4.688420821504113 4.871895064967488 0.0
9.910554884115975 0.3448356354522978 0.0
9.911230082250466 9.65764729394159 0.0
9.921953841410854 6.851023993342036 0.0
9.912065178606017 5.448170483544033 0.0
9.911660025326261 3.861846960030188 0.0
9.914847467973438 3.14501593945607 0.0
9.913397459621425 5.849999999993703 0.0
9.913397459621425 7.849999999996735 0.0
9.906916878988277 2.15455769998631 0.0
9.913397459621425 8.349999999997479 0.0
9.909472363117661 1.640528221515488 0.0
9.913987325695956 1.152857110636247 0.0
9.913397459621425 8.849999999998241 0.0
0.9100099990995943 2.614215977520411 0.0
0.8395284981715456 7.451196254860987 0.0
9.723278867451556 9.898135916635193 0.0
9.723316350887044 0.09841820909386662 0.0
1.385819164827588 4.454539963646463 0.0
1.338343629665047 5.523111536005823 0.0
1.377179700550677 0.6809168304959698 0.0
1.418060461092743 9.285896715136046 0.0
9.91268220142518 0.1457914080939694 0.0
9.906737126737994 9.845745933882352 0.0
0.7108351382691361 6.537941170074089 0.0
1.527735020267026 6.915620208855231 0.0
1.630993885659103 7.838271825205868 0.0
2.232760943566823 7.370850737296832 0.0
2.243414218068206 6.688299277952821 0.0
2.779655053105118 7.021588754814074 0.0
2.80227799359795 7.632420170547022 0.0
3.282022065908813 7.305859666021318 0.0
3.327597298795347 7.857554136825748 0.0
3.743210251018715 7.549183328204379 0.0
3.716353232200752 7.062036086888612 0.0
4.111978858674101 7.27497101169417 0.0
4.104192177581432 6.879858986267289 0.0
4.436230765617037 7.045693351607117 0.0
4.430360014817357 6.703971783962796 0.0
4.732390145036301 6.849841042423394 0.0
5.056161327708878 5.095276573498806 0.0
5.111586796021131 4.999081142133581 0.0
5.169267363407189 5.09444870412406 0.0
5.223795108752053 4.996986220359468 0.0
5.281480803887719 5.092780870372803 0.0
5.335670761900611 4.994887492556936 0.0
5.393485214772442 5.090486192743301 0.0
5.447323082877892 4.992601527033996 0.0
5.505243219343024 5.087953380710069 0.0
5.558739102026105 4.990287787962959 0.0
5.616491581184779 5.085335255235766 0.0
5.669852346908056 4.9879269227514 0.0
5.727502713908907 5.082679981817038 0.0
5.780766004135139 4.988313988715834 0.0
5.838244881129535 5.080480568766611 0.0
5.891357695677371 4.986433849408193 0.0
5.948696036767613 5.077969900389505 0.0
6.001601341641615 4.981313698556656 0.0
6.058851024265095 5.074871552128682 0.0
6.111614020704875 4.978360695880202 0.0
6.168801161530775 5.072044953270978 0.0
6.221368818778567 4.975825765213497 0.0
6.278268309066882 5.066182320461055 0.0
6.330814273567539 4.972837984645718 0.0
6.387565032421376 5.062889771971895 0.0
6.437476667631405 4.971693683589553 0.0
[...]
POINT_DATA 2538
VECTORS disp float
1.4207887754753998e-11 3.159258337894116e-11 0.0
2.4216796914433853e-11 -6.284671195944391e-11 0.0
0.0028999999948869726 1.3963686529311547e-11 0.0
0.002899999970720861 -7.812084106797125e-11 0.0
0.0010389491263808758 0.000416204384561337 0.0
0.0021218641409342298 0.00013703076645112388 0.0
0.0014452697161917863 5.900876939139333e-5 0.0
1.99358157916823e-12 -8.525335819117515e-13 0.0
5.1871999423670515e-12 4.8626869215450306e-12 0.0
4.217245137367394e-12 1.9150355941255173e-12 0.0
3.792064581606555e-12 1.7882772887452546e-12 0.0
3.1091624465010784e-12 1.1209493587269447e-12 0.0
2.7631956420388055e-12 5.13819224130753e-13 0.0
2.391048406007395e-12 5.3148157654345344e-14 0.0
2.1269475605107507e-12 -5.550302132696014e-13 0.0
1.7047989890216718e-12 -1.2316297698002e-12 0.0
1.929150662922672e-12 -1.9756171478409806e-12 0.0
1.886141452951029e-12 -2.8507102409855907e-12 0.0
2.019271514522595e-12 -3.7975826530939685e-12 0.0
2.2191133386485622e-12 -4.748138741157102e-12 0.0
2.2859646540879524e-12 -5.543583059992128e-12 0.0
2.5942011302996967e-12 -6.546944951635676e-12 0.0
2.656066124409691e-12 -7.24491409213905e-12 0.0
2.875431733365338e-12 -8.178791484918339e-12 0.0
3.0721427093090028e-12 -9.128176704432996e-12 0.0
3.2200724396658244e-12 -1.002561631660196e-11 0.0
3.4681391709128664e-12 -1.1135142843265724e-11 0.0
3.797589843896986e-12 -1.2389279576450307e-11 0.0
4.3002715472238864e-12 -1.402031161642954e-11 0.0
4.380724150214877e-12 -1.574021689748372e-11 0.0
6.38841306170266e-12 -2.057257185912508e-11 0.0
2.9718235646898805e-12 -1.7323878475144933e-11 0.0
3.8674378554672346e-5 -4.2779567900787965e-5 0.0
6.753269025876679e-5 -7.264450292250482e-5 0.0
9.53159321727654e-5 -9.853849559854148e-5 0.0
0.00012158984132371118 -0.00012192218107844757 0.0
0.0001467788192422467 -0.00014361302739293206 0.0
0.00017139075243309803 -0.00016427947715232406 0.0
0.00019585472702960134 -0.00018392974712949257 0.0
0.00021993665428951154 -0.0002027721090720605 0.0
0.00024388210025593616 -0.00022100340809961348 0.0
0.00026777741652060714 -0.0002385917882320944 0.0
0.0002916238639737512 -0.00025572072954826606 0.0
0.00031564885356576627 -0.0002723600657684909 0.0
0.00033967895533651703 -0.0002885135276047448 0.0
0.0003638235754054862 -0.00030432810995854284 0.0
0.0003882404270974933 -0.0003197213864715649 0.0
0.00041268383116082854 -0.0003346956000885177 0.0
0.00043734081218910946 -0.00034935578045933245 0.0
0.00046222076260787074 -0.0003635962258975499 0.0
0.0004872914932140884 -0.0003775183670636682 0.0
0.0005125763590188762 -0.0003911139047425232 0.0
0.0005381033881597334 -0.0004043782615889563 0.0
0.0005638297166206646 -0.00041730681055879916 0.0
0.0005899191623903064 -0.00042994660820538434 0.0
0.0006161002797752493 -0.00044224029997245177 0.0
0.0006427043411615237 -0.0004542329006218312 0.0
0.0006693766381953988 -0.00046587199398603966 0.0
0.0006963718268591744 -0.00047722215298085733 0.0
0.0007235630708005926 -0.0004882057087495269 0.0
0.0007511246433455531 -0.0004989074772948598 0.0
0.0007787440456877208 -0.0005092884591058176 0.0
0.0008067568987389203 -0.0005193718828345796 0.0
0.0008349613112025134 -0.000529096996098138 0.0
0.0008634508440184659 -0.0005385433501976746 0.0
0.0008921075024539959 -0.0005476524939509066 0.0
0.000921099999595831 -0.0005564780155577972 0.0
0.0009501421015052853 -0.0005649277384332637 0.0
0.000979496803915306 -0.0005730477909876935 0.0
0.001008941096324816 -0.0005807142092253313 0.0
0.0010385679640342747 -0.0005879452680439659 0.0
0.0010683814122081094 -0.0005948825944339363 0.0
0.0010982951101994268 -0.0006013372382474077 0.0
0.0011285041646332875 -0.0006074692139063354 0.0
0.0011589210092365107 -0.0006131738166124732 0.0
0.001189480024790329 -0.0006185747952030646 0.0
0.001220267143783301 -0.0006235062612782912 0.0
0.001251065379750029 -0.0006281058704452031 0.0
0.0012821136769277785 -0.0006323445627277406 0.0
0.0013132116714973305 -0.0006361812018834647 0.0
0.0013444388386139403 -0.0006397248886858325 0.0
0.0013758325085057497 -0.0006428607483817325 0.0
0.0014070532214848002 -0.0006455227985581232 0.0
0.001438561746227453 -0.0006479060682339399 0.0
0.0014696674289131533 -0.0006497949056190767 0.0
0.0015012092868633676 -0.0006513334394945013 0.0
0.001532150724454839 -0.0006523908162731413 0.0
0.0015637106662719695 -0.0006531147358192552 0.0
0.0015945576895077926 -0.0006534105370868462 0.0
0.0016249311998535391 -0.000653021607432881 0.0
0.0016549312925897978 -0.0006521525931442896 0.0
0.001684265918850824 -0.0006501369810102063 0.0
0.0017132509261078297 -0.0006480080047851065 0.0
0.001741934966691918 -0.0006452301259504958 0.0
0.0017709631286197604 -0.0006420948970058428 0.0
0.0017995585342909862 -0.0006378628466239192 0.0
0.0018284271261001907 -0.0006333532235723293 0.0
0.0018582797715679183 -0.0006286264956045428 0.0
0.0018867925060470508 -0.0006229292826112774 0.0
0.001915378125659958 -0.0006165180644021117 0.0
0.001944374192557204 -0.0006090601527132456 0.0
0.001973662472637438 -0.0006009471723647441 0.0
0.002002236590133195 -0.0005920046769222065 0.0
0.002031581566845431 -0.0005819036274464781 0.0
0.002060393009462032 -0.0005711430393905355 0.0
0.0020893585549856476 -0.0005598499019571023 0.0
0.002118907310896381 -0.0005476891591767219 0.0
0.0021481542437587963 -0.0005350151945891718 0.0
0.002177569880171889 -0.0005217079750283137 0.0
0.002206895395970142 -0.0005078952013537642 0.0
0.002236533630103388 -0.0004935508864769266 0.0
0.002266251014746454 -0.0004786230750486486 0.0
0.0022959648234923656 -0.00046321363168020394 0.0
0.002325464685276471 -0.0004472952079907166 0.0
0.0023550054574001168 -0.00043088191649526166 0.0
0.0023846560414769254 -0.0004138750013178256 0.0
0.0024141858751559986 -0.00039636301958550704 0.0
0.0024437751550600083 -0.00037839528075385686 0.0
0.002473609665383256 -0.00035976245993317544 0.0
0.002503390517705275 -0.0003405110925637812 0.0
0.0025331403610401957 -0.00032069063132488847 0.0
0.0025631762180117292 -0.0003001439184370455 0.0
0.002593519152462271 -0.00027873262811391614 0.0
0.002623970733662385 -0.00025644182228484524 0.0
0.002654593680440103 -0.00023326348374800546 0.0
0.00268563492685242 -0.00020892084263593135 0.0
0.002717506658897072 -0.0001830904003388282 0.0
0.002749806637250677 -0.00015557695342456569 0.0
0.0027828939829720807 -0.00012573670503619638 0.0
0.0028181488446774147 -9.231804916779037e-5 0.0
0.0028545550284400827 -5.3682258475903955e-5 0.0
0.002899999996148562 -1.844544160497126e-11 0.0
0.002899999992023733 -2.078425810754954e-11 0.0
0.0028999999952127975 -1.1934529974559358e-11 0.0
0.0028999999951296695 -1.0279101522477076e-11 0.0
0.0028999999956110223 -8.118542240234758e-12 0.0
0.0028999999957670455 -6.6853062286348745e-12 0.0
0.0028999999958306535 -5.6689447071143314e-12 0.0
0.0028999999959856697 -4.800951864643637e-12 0.0
0.00289999999602339 -4.022642857546339e-12 0.0
0.002899999996162091 -3.3244400958451554e-12 0.0
0.0028999999963008885 -2.7817246375792654e-12 0.0
0.0028999999964187725 -2.097590293705831e-12 0.0
0.0028999999965183027 -1.5907691429239022e-12 0.0
0.0028999999966422604 -9.666694858273995e-13 0.0
0.0028999999967198207 -3.5665762112958845e-13 0.0
0.002899999996763758 3.4268940187866246e-13 0.0
0.0028999999968265387 1.0669865604232154e-12 0.0
0.0028999999965665752 1.9425520473731414e-12 0.0
0.002899999996861131 2.6545822913458614e-12 0.0
0.0028999999963942257 3.60080003459492e-12 0.0
0.0028999999964602653 4.2330356533653954e-12 0.0
0.002899999996340629 4.8590043594149385e-12 0.0
0.002899999996481506 4.9804784533335695e-12 0.0
0.0028999999967637725 6.096591956683358e-12 0.0
0.0028999999983011426 2.942075089728365e-12 0.0
0.0026854614226154423 0.00010426194762281268 0.0
0.002504606112636181 0.00015141770579352236 0.0
0.0023427081493526463 0.00015755560784919964 0.0
0.002206695974744508 0.0001474076343140626 0.0
0.0021192818351486896 4.290807544403685e-5 0.0
0.0021081380013760935 -5.945338614733065e-6 0.0
0.002078053933739574 -3.590610373705904e-5 0.0
0.002035052276291997 -3.8805341366380515e-5 0.0
0.001982213696541868 -2.640541731825596e-5 0.0
0.0019266786657683272 -1.065762001762874e-5 0.0
0.001869721615970431 5.060114328409584e-6 0.0
0.0018123118636126023 2.0877157778615812e-5 0.0
0.0017533824792267448 3.425652008525087e-5 0.0
0.0016925181175441587 4.479618155470077e-5 0.0
0.0016264814686467494 5.270129700754104e-5 0.0
0.0015489880409411678 5.82906571842554e-5 0.0
0.0013605313300717055 9.820736672729136e-5 0.0
0.001300342097209463 0.0001148830328165849 0.0
0.0012505134129614647 0.00012530144045153437 0.0
0.0012069764837044847 0.00013382914415794553 0.0
0.0011674109991627818 0.0001417684251275687 0.0
0.0011316571729859841 0.00014993188882246974 0.0
0.0010994566931412202 0.0001593580345967484 0.0
0.001072025948257159 0.0001708193642541821 0.0
0.0010507898980107924 0.00018840653100713606 0.0
0.0010357637031405853 0.0002111555054310698 0.0
0.0010357798635470127 0.0002572404070499174 0.0
0.0010348318285176323 0.0003188173396729862 0.0
0.0009329773580241811 0.0004300517420887178 0.0
0.0007831509796992643 0.0004210689774674938 0.0
0.0005590859229712276 0.000347939293367003 0.0
0.0002997831797829601 0.0002256904761319876 0.0
0.0007553909116570995 -0.00047886121039648937 0.0
0.001996176681446517 -0.0005585367375018715 0.0
0.0009579565880226775 -0.0005466768383605552 0.0
0.0017892822284162459 -0.0006133301199831787 0.0
0.0011728181426088184 -0.0005948873245630445 0.0
0.001575288760864525 -0.0006272260704146623 0.0
0.0013587499517151603 -0.0006183586641227506 0.0
0.0021748247736466976 -0.0004931666743629084 0.0
0.000597994962217021 -0.0004163130598786386 0.0
0.0023158271240933293 -0.00042242523057980935 0.0
0.0004690409035646231 -0.0003520447907279321 0.0
4.665176285149185e-5 -8.66796776403962e-6 0.0
0.0028469364548348577 -5.111268071086879e-6 0.0
0.0015570058806954924 7.761770375194477e-5 0.0
0.0017801135460733034 4.637973464716652e-5 0.0
0.0013329708977713386 9.643740882174883e-5 0.0
0.0011669636611581174 0.00014934132407558862 0.0
0.0024669216758052776 -0.0003397275396249441 0.0
0.00035058055154921485 -0.0002830395516643914 0.0
3.508261151280019e-5 -1.4030222222232326e-5 0.0
0.002861648835432086 -8.910475296216197e-6 0.0
0.0028260130367459397 3.158391607883035e-6 0.0
6.0917482782583645e-5 1.5068721147060307e-6 0.0
0.0025874694706167606 -0.000259889595807414 0.0
0.00025054860017895337 -0.00021236319460893926 0.0
0.001940284447746845 8.505610776181178e-6 0.0
0.0010556364087452208 0.00017536206979518282 0.0
2.7391125856817924e-5 -1.4297954956793008e-5 0.0
0.002869630296028806 -1.0423412602963856e-5 0.0
0.0010819364651797451 -0.0005766464858521449 0.0
0.0012644943657937689 -0.0006084337894366645 0.0
0.0017005117470115059 -0.0006242333442389671 0.0
0.001455506216393643 -0.0006235078312157456 0.0
0.0018773988499508917 -0.0005942371918211196 0.0
0.002078954824098621 -0.0005332394417767766 0.0
0.0008771740707437354 -0.0005226232829552926 0.0
0.0006771800909752308 -0.0004517592619749604 0.0
0.0026757316668437376 -0.0001956234427463438 0.0
0.0001769519110577095 -0.00015691605372411023 0.0
0.002805939743509429 1.6380016430305473e-5 0.0
8.082447915942765e-5 1.0898372838346218e-5 0.0
0.0028751042105832846 -1.3147414928470985e-5 0.0
2.605578996811324e-5 -1.6909246407981588e-5 0.0
0.0020482326871196894 -1.3306696861891215e-5 0.0
0.0010008161572847916 0.00020440269718757917 0.0
0.0027670259670768377 2.8646051332973997e-5 0.0
0.00011977513791961583 2.2038165114302352e-5 0.0
4.090088661887951e-5 -1.2420938178866872e-5 0.0
0.0028539646200417147 -7.744752867768395e-6 0.0
0.0016681581265670458 6.669646482019648e-5 0.0
0.0012495131985099002 0.00013154145892532653 0.0
9.926663053242657e-5 -9.004939312090465e-5 0.0
0.0027799784417251484 -0.00010995377339852129 0.0
0.001933972794985578 -0.0005820342362026693 0.0
0.0015157000280045254 -0.0006271992580425699 0.0
0.0010237037096785593 -0.0005630194769473709 0.0
0.0008150154489474118 -0.0005035612449717414 0.0
0.0016407639212402186 -0.0006270686472466956 0.0
0.002229047375436299 -0.0004681090219211982 0.0
0.0005462713054387958 -0.00039106481195231755 0.0
0.0023779826804951865 -0.0003912173134739362 0.0
0.0004164627530790048 -0.0003215888890426577 0.0
0.00029799514309394116 -0.0002468762112047272 0.0
0.002527033424055398 -0.0003007418892321784 0.0
0.0006531597934908666 0.00021990326583117128 0.0
0.0024015796676206376 8.707638078741926e-5 0.0
0.0028751050218380177 -1.804101949406927e-5 0.0
2.2780108631976463e-5 -1.7341212773117165e-5 0.0
0.0009811404186847842 0.0002774905376739108 0.0
0.002134668193827765 2.4148799384609085e-5 0.0
0.00014406836724142896 3.549031425042669e-5 0.0
0.0027655025571149705 3.072259297722598e-5 0.0
4.380351097110609e-5 -3.989114326705488e-5 0.0
0.0028470850928382745 -4.910805662651767e-5 0.0
0.0022631965425075227 8.045406171571382e-5 0.0
0.0022903443172119075 6.814897124858774e-5 0.0
0.00246711323093356 6.827098429846882e-5 0.0
0.0023574860646232093 7.317465609528734e-5 0.0
0.002219166965884076 6.137842482812172e-5 0.0
0.0022625755544954254 7.981451221725595e-5 0.0
0.0023982066976013386 7.962171799057047e-5 0.0
0.0023106378442669523 8.897821451674368e-5 0.0
0.0024407511081757376 7.965888683621434e-5 0.0
0.0023612108520887853 8.712771781124472e-5 0.0
0.0022395639867465256 9.561166263162248e-5 0.0
0.0022871833659169837 9.077456512444439e-5 0.0
0.002183137318877077 9.846288852999876e-5 0.0
0.0022227563317770154 9.05097744130626e-5 0.0
0.0021292423248494632 9.803656701851037e-5 0.0
0.0021655004547940014 8.643315861488422e-5 0.0
0.0015212436541200427 4.724689640440757e-5 0.0
0.0014367864707045142 3.311796591847683e-5 0.0
0.0014988270350191353 2.7299290434045355e-5 0.0
0.0014301235371213744 1.682212209559087e-5 0.0
0.001484762935346496 1.188387798829312e-5 0.0
0.001425568224460984 3.9058945204940826e-6 0.0
0.0014750601588168163 -5.398845780053667e-7 0.0
0.0014213983432447782 -7.494229657886922e-6 0.0
0.0014676090765641141 -1.1500996267586906e-5 0.0
0.001417702294455864 -1.7905834200035125e-5 0.0
0.001461650196453989 -2.1502824979298036e-5 0.0
0.0014144439357762196 -2.7640999847036866e-5 0.0
0.0014567215936635424 -3.130013936479542e-5 0.0
0.0014127121329096724 -3.712956346600138e-5 0.0
0.001452576616502153 -4.077171835109298e-5 0.0
0.0014100368884739434 -4.65151131208114e-5 0.0
0.0014487228470025895 -5.0081311628467325e-5 0.0
0.0014061543099239031 -5.583010003693314e-5 0.0
0.0014449741993897538 -5.941352491682925e-5 0.0
0.0014033870923354779 -6.508856308391085e-5 0.0
0.0014416461145504993 -6.880630189227239e-5 0.0
0.0014008695933663475 -7.44254003453492e-5 0.0
0.0014372582977685284 -7.823441432892245e-5 0.0
0.0013981657922083075 -8.388822303081974e-5 0.0
0.0014340285563810388 -8.777558551295434e-5 0.0
0.0013962526460989453 -9.322574759614848e-5 0.0
0.0014310656884067758 -9.745013979649164e-5 0.0
0.0013919755518799635 -0.00010239199956290612 0.0
0.001427714578306687 -0.0001072626845820909 0.0
0.001380428565720527 -0.00011257117900700842 0.0
0.0014268554415882606 -0.00011739623709104132 0.0
0.0013866908758545173 -0.00012316053128552136 0.0
0.0014237146807541577 -0.00012768519918382324 0.0
0.0013855772319961081 -0.00013364887979787037 0.0
0.001421187870775128 -0.00013828343492287983 0.0
0.0013855418855771837 -0.0001442492218485189 0.0
0.001418523126058589 -0.00014908896795331943 0.0
0.001383732304312824 -0.00015530702426183146 0.0
0.0013742771411315196 -1.2402741482472092e-5 0.0
0.0014158332172451056 -0.00016021470998196 0.0
0.001364448771074453 -6.081126778777124e-5 0.0
0.0013441169235943102 -0.0001214350189086579 0.0
0.0013791760295751006 -0.00016655036762837092 0.0
0.0014128827394094432 -0.00017163733872747213 0.0
0.0013746529410434843 -0.00017849440893088865 0.0
0.0013416502660018475 -0.00017227906694022464 0.0
0.0013361681092634084 -0.00018476885348555751 0.0
0.001408470674599125 -0.00018408507249588737 0.0
0.0014472455364982332 -0.00017675980990698958 0.0
0.00146039757035143 -0.00012133703069907973 0.0
0.0014430560609772392 -0.00018959603090123542 0.0
0.0014843122885644779 -0.00018096404235112883 0.0
0.0014787125828438319 -0.00019505549280677325 0.0
0.0013035626341264897 -0.00017819601035833505 0.0
0.0012995004958779753 -0.00019035759994311005 0.0
0.001521315785329828 -0.00018567927235149198 0.0
0.0012648123156712256 -0.00018339572160350242 0.0
0.0012629122715129206 -0.00019605264109172956 0.0
0.0015164112634072824 -0.0001999658895921501 0.0
0.001557672926771301 -0.00019124544684447845 0.0
0.00122583155390011 -0.00018857397199031686 0.0
0.001223054389314038 -0.0002015384182298035 0.0
0.0015536633563354033 -0.00020546002784433453 0.0
0.0015961455487595768 -0.0001962113381939928 0.0
0.0011870665955513245 -0.00019361246313233038 0.0
0.0011839372288512246 -0.00020726501104272572 0.0
0.001591952954157821 -0.0002111903061727879 0.0
0.0016356724470362647 -0.00020105283764556534 0.0
0.001148712177748576 -0.0001978131160359586 0.0
0.0011431036323080468 -0.00021181012960927076 0.0
0.0016319456754444054 -0.0002164249253349871 0.0
0.0016759916072747716 -0.00020571859371307303 0.0
0.0011066609080090785 -0.0002018953340482454 0.0
0.001102097382306659 -0.0002165593257608442 0.0
0.0010634519573973337 -0.0002066694774736303 0.0
0.0010679747401830732 -0.0001912060572033476 0.0
0.00158429292726978 -0.00022601783530227975 0.0
0.0016719816397413748 -0.0002217332187050376 0.0
0.0017169930189893411 -0.00021026665320919092 0.0
0.0017217552137387758 -0.00019377196743317995 0.0
0.0014754985233139729 -7.289590578856267e-5 0.0
0.0017645113615293283 -0.0001979521547641167 0.0
0.0017696787923812075 -0.00018079295091566962 0.0
0.0018139218080199975 -0.00018435978911125205 0.0
0.0010622492710853548 -0.00022238122700736848 0.0
0.0010219409568808793 -0.0002107349703063082 0.0
0.0011002333027778544 -0.00023227178005681503 0.0
0.0017116033239156188 -0.00022718078685751356 0.0
0.0010213465866411816 -0.00022675963685524065 0.0
0.0009805750127404875 -0.00021415191816676903 0.0
0.0014974918208518096 -3.3975843730235525e-5 0.0
0.0009800096460742622 -0.00022973403656126597 0.0
0.0009392712296171591 -0.00021683992759422236 0.0
0.0009389660577533799 -0.00023269876637441994 0.0
0.0008988020704971185 -0.00021857232178520137 0.0
0.0008982481402678246 -0.00020315110379585176 0.0
0.000855301139005671 -0.00020518993664215787 0.0
0.0008554470074787395 -0.00018893343354016415 0.0
0.0008938015774148936 -0.00023406983831554136 0.0
0.0008092777693904578 -0.00019098318568488287 0.0
0.000809112006621004 -0.00017435495196040096 0.0
0.0009391636691322362 -0.0002494372689259135 0.0
0.0009008187427089918 -0.0002521239341228428 0.0
0.0007640147658551537 -0.00017500756954927707 0.0
0.000762268276641426 -0.00015871782857768512 0.0
0.0018203444616393552 -0.00016693097621969444 0.0
0.0018664558115036266 -0.00017018754039653796 0.0
0.0009394383022289432 -0.00026637821818645377 0.0
0.0009017012915367021 -0.0002688757912197023 0.0
0.0018734373346698111 -0.00015217033068948478 0.0
0.0019218344571162872 -0.00015548009967734228 0.0
0.0019125852450973015 -0.00017530126363088535 0.0
0.0019684384963560434 -0.00015949289532403524 0.0
0.0019599081259497894 -0.00017975447839174306 0.0
0.0020159162732346857 -0.00016238040947457865 0.0
0.0020099787789420883 -0.0001824092667740735 0.0
0.0020679802679038502 -0.00016290819754693643 0.0
0.0020571544036113204 -0.0001835089534886705 0.0
0.002073793646676468 -0.00014372280907705846 0.0
0.002115893730561799 -0.00016425828515254646 0.0
0.0021019729629261678 -0.00018487713130475587 0.0
0.0009403085076510502 -0.00028364487825161856 0.0
0.0007147007094591218 -0.00015879357858572264 0.0
0.0007119825275580951 -0.00014211551322893998 0.0
0.002047889066456551 -0.00020467776071336278 0.0
0.0020907565553439198 -0.00020576314035950264 0.0
0.002143913485370786 -0.00018560177906554992 0.0
0.002040353494404683 -0.00022626196507986428 0.0
0.0009035732315794565 -0.0002861831556611939 0.0
0.0021325513118245322 -0.00020617153833017455 0.0
0.0021845630750562278 -0.0001854177652126928 0.0