# vtk DataFile Version 2.0
phase field modeling fracture
ASCII
DATASET UNSTRUCTURED_GRID
POINTS 2538 float
0.0 0.0 0.0
10.0 0.0 0.0
0.0 10.0 0.0
10.0 10.0 0.0
0.0 4.9995 0.0
0.0 5.0005 0.0
5.0 5.0 0.0
0.9416964895726688 0.0 0.0
1.803581725054446 0.0 0.0
2.592419885431098 0.0 0.0
3.314401822861676 0.0 0.0
3.975193910351406 0.0 0.0
4.579982132660152 0.0 0.0
5.133512780936812 0.0 0.0
5.640130319506143 0.0 0.0
6.103810708661955 0.0 0.0
6.528192895506818 0.0 0.0
6.916607540127679 0.0 0.0
7.272102969376355 0.0 0.0
7.597469242948583 0.0 0.0
7.895259826292669 0.0 0.0
8.167811885738017 0.0 0.0
8.417264413845215 0.0 0.0
8.645575169389538 0.0 0.0
8.854535961159101 0.0 0.0
9.045786767735546 0.0 0.0
9.220828555767493 0.0 0.0
9.38103509633881 0.0 0.0
9.527663687265145 0.0 0.0
9.661865124984566 0.0 0.0
9.784692609918062 0.0 0.0
9.897110148790482 0.0 0.0
10.0 0.09999999999992584 0.0
10.0 0.199999999999856 0.0
10.0 0.2999999999997771 0.0
10.0 0.3999999999996677 0.0
10.0 0.4999999999995511 0.0
10.0 0.5999999999994683 0.0
10.0 0.6999999999993983 0.0
10.0 0.7999999999993286 0.0
10.0 0.8999999999992587 0.0
10.0 0.9999999999991888 0.0
10.0 1.099999999999119 0.0
10.0 1.199999999999033 0.0
10.0 1.299999999998852 0.0
10.0 1.399999999998576 0.0
10.0 1.499999999998284 0.0
10.0 1.599999999997992 0.0
10.0 1.6999999999977 0.0
10.0 1.799999999997408 0.0
10.0 1.899999999997116 0.0
10.0 1.999999999996825 0.0
10.0 2.099999999996533 0.0
10.0 2.199999999996241 0.0
10.0 2.299999999995949 0.0
10.0 2.399999999995657 0.0
10.0 2.499999999995365 0.0
10.0 2.599999999995073 0.0
10.0 2.699999999994782 0.0
10.0 2.79999999999449 0.0
10.0 2.899999999994198 0.0
10.0 2.999999999993906 0.0
10.0 3.099999999993614 0.0
10.0 3.199999999993322 0.0
10.0 3.299999999993029 0.0
10.0 3.399999999992738 0.0
10.0 3.499999999992446 0.0
10.0 3.599999999992154 0.0
10.0 3.699999999991863 0.0
10.0 3.799999999991571 0.0
10.0 3.899999999991278 0.0
10.0 3.999999999991022 0.0
10.0 4.099999999991035 0.0
10.0 4.199999999991187 0.0
10.0 4.299999999991338 0.0
10.0 4.399999999991491 0.0
10.0 4.499999999991642 0.0
10.0 4.599999999991795 0.0
10.0 4.699999999991947 0.0
10.0 4.799999999992099 0.0
10.0 4.89999999999225 0.0
10.0 4.999999999992403 0.0
10.0 5.099999999992555 0.0
10.0 5.199999999992706 0.0
10.0 5.299999999992858 0.0
10.0 5.39999999999301 0.0
10.0 5.499999999993161 0.0
10.0 5.599999999993313 0.0
10.0 5.699999999993466 0.0
10.0 5.799999999993618 0.0
10.0 5.899999999993771 0.0
10.0 5.999999999993922 0.0
10.0 6.099999999994074 0.0
10.0 6.199999999994227 0.0
10.0 6.299999999994378 0.0
10.0 6.39999999999453 0.0
10.0 6.499999999994682 0.0
10.0 6.599999999994833 0.0
10.0 6.699999999994986 0.0
10.0 6.799999999995138 0.0
10.0 6.899999999995289 0.0
10.0 6.999999999995442 0.0
10.0 7.099999999995594 0.0
10.0 7.199999999995747 0.0
10.0 7.299999999995897 0.0
10.0 7.39999999999605 0.0
10.0 7.499999999996202 0.0
10.0 7.599999999996353 0.0
10.0 7.699999999996505 0.0
10.0 7.799999999996658 0.0
10.0 7.899999999996808 0.0
10.0 7.999999999996962 0.0
10.0 8.099999999997113 0.0
10.0 8.199999999997265 0.0
10.0 8.299999999997418 0.0
10.0 8.399999999997569 0.0
10.0 8.499999999997721 0.0
10.0 8.599999999997873 0.0
10.0 8.699999999998024 0.0
10.0 8.799999999998176 0.0
10.0 8.899999999998329 0.0
10.0 8.99999999999848 0.0
10.0 9.099999999998634 0.0
10.0 9.199999999998786 0.0
10.0 9.299999999998937 0.0
10.0 9.399999999999089 0.0
10.0 9.499999999999241 0.0
10.0 9.599999999999392 0.0
10.0 9.699999999999545 0.0
10.0 9.799999999999697 0.0
10.0 9.899999999999848 0.0
9.897110148790565 10.0 0.0
9.784692609918244 10.0 0.0
9.66186512498486 10.0 0.0
9.527663687265571 10.0 0.0
9.381035096339392 10.0 0.0
9.220828555768257 10.0 0.0
9.045786767736512 10.0 0.0
8.854535961160305 10.0 0.0
8.645575169391027 10.0 0.0
8.417264413847017 10.0 0.0
8.167811885740178 10.0 0.0
7.895259826295246 10.0 0.0
7.597469242951631 10.0 0.0
7.272102969379938 10.0 0.0
6.916607540131873 10.0 0.0
6.528192895511704 10.0 0.0
6.103810708667616 10.0 0.0
5.640130319512691 10.0 0.0
5.13351278094435 10.0 0.0
4.579982132668816 10.0 0.0
3.975193910361222 10.0 0.0
3.314401822869852 10.0 0.0
2.592419885437257 10.0 0.0
1.803581725058137 10.0 0.0
0.9416964895740705 10.0 0.0
0.0 9.00010000000243 0.0
0.0 8.000200000005481 0.0
0.0 7.000300000005135 0.0
0.0 6.000400000002569 0.0
0.901790731451151 5.000409820926855 0.0
1.657200899774397 5.000334279910023 0.0
2.289991063707192 5.000271000893629 0.0
2.820065163538221 5.000217993483646 0.0
3.264096435579811 5.000173590356442 0.0
3.636051481595835 5.00013639485184 0.0
3.947629914072366 5.000105237008593 0.0
4.208632181002628 5.0000791367819 0.0
4.427267949625672 5.000057273205037 0.0
4.610414277633563 5.000038958572237 0.0
4.763831845154243 5.000023616815485 0.0
4.892346298799659 5.00001076537012 0.0
4.892346298799748 4.99998923462988 0.0
4.763831845154455 4.999976383184515 0.0
4.610414277633943 4.999961041427763 0.0
4.427267949626277 4.999942726794963 0.0
4.208632181003523 4.9999208632181 0.0
3.94762991407365 4.999894762991407 0.0
3.636051481597624 4.99986360514816 0.0
3.264096435582253 4.999826409643559 0.0
2.820065163541503 4.999782006516354 0.0
2.289991063711534 4.999728999106371 0.0
1.657200899778495 4.999665720089978 0.0
0.9017907314530094 4.999590179073145 0.0
0.0 3.999600000002013 0.0
0.0 2.999700000005187 0.0
0.0 1.99980000000512 0.0
0.0 0.9999000000025537 0.0
9.897889398521345 2.93573355845387 0.0
9.906568249974548 7.060009441434234 0.0
9.913122631074113 3.64016132281653 0.0
9.922462129543863 6.354535290629151 0.0
9.917693659967533 4.354211663134567 0.0
9.909873057440208 5.637584487339942 0.0
9.914183254994697 4.950672966925282 0.0
9.913885043715895 7.666887930262611 0.0
9.91009668007573 2.351889069770817 0.0
9.905135696074536 8.138152454502785 0.0
9.913397459621809 1.849999999997262 0.0
7.099302372137626 0.297750452375005 0.0
7.095143729410097 9.700359990366296 0.0
4.942912558701401 5.095838627899509 0.0
4.315009232304429 5.165022115481685 0.0
4.946182472483878 4.906763777264103 0.0
4.317967462990024 4.825955043772673 0.0
9.916390871492647 8.64999999999792 0.0
9.921504649680616 1.368376469890358 0.0
8.292538149791614 0.206877570318844 0.0
8.292538149793597 9.793122429681448 0.0
5.884594439766573 9.587645267048616 0.0
5.794826292691579 0.3794853783929359 0.0
9.913397459621425 9.049999999998557 0.0
9.908526577714177 0.9568239351922434 0.0
3.456851160380649 5.315740054130451 0.0
3.457889657868442 4.707121019609468 0.0
8.945214200703926 0.1503383337970344 0.0
8.950161364448409 9.8413906539257 0.0
9.913862335499305 4.055887885208452 0.0
9.916697353372683 4.650158482607802 0.0
9.919076340414442 6.049999999994006 0.0
9.906994308667635 5.25749687748192 0.0
9.917490342358025 6.655979201891897 0.0
9.915757520293784 7.343848891656911 0.0
9.910049507471042 3.363474386285078 0.0
9.914471988502868 2.647400064832979 0.0
9.91474124160965 9.337490423485129 0.0
9.916971008170838 0.6499999999994355 0.0
4.307157269264427 9.509674045029644 0.0
4.331527375865619 0.4401616696422582 0.0
9.45434939180249 9.878397030523757 0.0
9.457696120412969 0.1270877537061785 0.0
2.555070293622606 5.422044496190925 0.0
2.566232917480916 4.608001224030952 0.0
3.026511860837692 9.332320638257093 0.0
2.945561971800619 0.5895662714727601 0.0
7.7395404387124 0.2511088946967771 0.0
7.736379255744154 9.745848826372828 0.0
4.687135269408529 5.122111433928926 0.0
4.688420821504113 4.871895064967488 0.0
9.910554884115975 0.3448356354522978 0.0
9.911230082250466 9.65764729394159 0.0
9.921953841410854 6.851023993342036 0.0
9.912065178606017 5.448170483544033 0.0
9.911660025326261 3.861846960030188 0.0
9.914847467973438 3.14501593945607 0.0
9.913397459621425 5.849999999993703 0.0
9.913397459621425 7.849999999996735 0.0
9.906916878988277 2.15455769998631 0.0
9.913397459621425 8.349999999997479 0.0
9.909472363117661 1.640528221515488 0.0
9.913987325695956 1.152857110636247 0.0
9.913397459621425 8.849999999998241 0.0
0.9100099990995943 2.614215977520411 0.0
0.8395284981715456 7.451196254860987 0.0
9.723278867451556 9.898135916635193 0.0
9.723316350887044 0.09841820909386662 0.0
1.385819164827588 4.454539963646463 0.0
1.338343629665047 5.523111536005823 0.0
1.377179700550677 0.6809168304959698 0.0
1.418060461092743 9.285896715136046 0.0
9.91268220142518 0.1457914080939694 0.0
9.906737126737994 9.845745933882352 0.0
0.7108351382691361 6.537941170074089 0.0
1.527735020267026 6.915620208855231 0.0
1.630993885659103 7.838271825205868 0.0
2.232760943566823 7.370850737296832 0.0
2.243414218068206 6.688299277952821 0.0
2.779655053105118 7.021588754814074 0.0
2.80227799359795 7.632420170547022 0.0
3.282022065908813 7.305859666021318 0.0
3.327597298795347 7.857554136825748 0.0
3.743210251018715 7.549183328204379 0.0
3.716353232200752 7.062036086888612 0.0
4.111978858674101 7.27497101169417 0.0
4.104192177581432 6.879858986267289 0.0
4.436230765617037 7.045693351607117 0.0
4.430360014817357 6.703971783962796 0.0
4.732390145036301 6.849841042423394 0.0
5.056161327708878 5.095276573498806 0.0
5.111586796021131 4.999081142133581 0.0
5.169267363407189 5.09444870412406 0.0
5.223795108752053 4.996986220359468 0.0
5.281480803887719 5.092780870372803 0.0
5.335670761900611 4.994887492556936 0.0
5.393485214772442 5.090486192743301 0.0
5.447323082877892 4.992601527033996 0.0
5.505243219343024 5.087953380710069 0.0
5.558739102026105 4.990287787962959 0.0
5.616491581184779 5.085335255235766 0.0
5.669852346908056 4.9879269227514 0.0
5.727502713908907 5.082679981817038 0.0
5.780766004135139 4.988313988715834 0.0
5.838244881129535 5.080480568766611 0.0
5.891357695677371 4.986433849408193 0.0
5.948696036767613 5.077969900389505 0.0
6.001601341641615 4.981313698556656 0.0
6.058851024265095 5.074871552128682 0.0
6.111614020704875 4.978360695880202 0.0
6.168801161530775 5.072044953270978 0.0
6.221368818778567 4.975825765213497 0.0
6.278268309066882 5.066182320461055 0.0
6.330814273567539 4.972837984645718 0.0
6.387565032421376 5.062889771971895 0.0
6.437476667631405 4.971693683589553 0.0
[...]
POINT_DATA 2538
VECTORS disp float
1.3606068724959882e-11 2.8855554079170003e-11 0.0
2.051730924767016e-11 -5.146490404954744e-11 0.0
0.00259999999688405 9.7460189389868e-12 0.0
0.002599999972458544 -7.191187491295981e-11 0.0
0.0009639857303740895 0.0003885135552955529 0.0
0.001919335866134551 7.987085428109963e-5 0.0
0.0013128904690179184 3.9772811769909754e-5 0.0
1.1793980566152615e-12 -1.8432862101987974e-12 0.0
4.305078862076565e-12 3.591834404315081e-12 0.0
3.3310064473627195e-12 9.164260269819256e-13 0.0
2.929289011607685e-12 9.148601829785416e-13 0.0
2.2478833843975237e-12 5.01285919035896e-13 0.0
1.999731540807645e-12 2.0294007591421414e-14 0.0
1.6781056352311832e-12 -2.73083639484413e-13 0.0
1.4624165325118694e-12 -7.653110448278996e-13 0.0
1.1093009585776685e-12 -1.3048459490910417e-12 0.0
1.3316235119991526e-12 -1.9620367624392714e-12 0.0
1.3068929694207665e-12 -2.69633293955749e-12 0.0
1.4477735579820795e-12 -3.481508101412677e-12 0.0
1.632962164452891e-12 -4.263505815568191e-12 0.0
1.7002592265083865e-12 -4.864890784739055e-12 0.0
1.991484224206975e-12 -5.669468503886983e-12 0.0
2.0419219210456075e-12 -6.154719075069255e-12 0.0
2.21850992927019e-12 -6.876188351689923e-12 0.0
2.4157447591322564e-12 -7.5589866447611e-12 0.0
2.5103709375871925e-12 -8.196792068625792e-12 0.0
2.714844228206493e-12 -8.999370393944366e-12 0.0
2.991061466316164e-12 -9.897196721307869e-12 0.0
3.390455579047175e-12 -1.108062375264451e-11 0.0
3.4063502008347408e-12 -1.2318969610572157e-11 0.0
5.116979979571659e-12 -1.6100244940102056e-11 0.0
2.1711324017939734e-12 -1.2804595542589157e-11 0.0
3.569080703640163e-5 -3.569037050725502e-5 0.0
6.239841921657322e-5 -6.041659502256559e-5 0.0
8.809143158068687e-5 -8.191257110893575e-5 0.0
0.00011226801856751579 -0.00010132794716513545 0.0
0.0001353524502649319 -0.00011934340471314001 0.0
0.00015781676382752106 -0.00013655731928300825 0.0
0.00018006246994179632 -0.00015292751303127818 0.0
0.0002018622214337276 -0.00016865279011405568 0.0
0.00022345423322667185 -0.00018390505755807392 0.0
0.00024493056415347787 -0.00019863874800052142 0.0
0.0002662798610327436 -0.0002130235409856579 0.0
0.00028772650050242057 -0.00022701752674467678 0.0
0.00030912475372284605 -0.00024062415798296877 0.0
0.00033056533548722774 -0.00025398122432592244 0.0
0.00035218122845542853 -0.0002669945612424638 0.0
0.0003737743423277915 -0.0002796674896659869 0.0
0.0003955135238071391 -0.0002921013610236985 0.0
0.00041742143316957786 -0.0003041896635471429 0.0
0.0004394604704401531 -0.00031602694350430654 0.0
0.0004616582661130115 -0.00032760936199960095 0.0
0.0004840320324188018 -0.0003389314180355762 0.0
0.0005065607765411838 -0.0003499898750688705 0.0
0.0005293843167975021 -0.00036082025962198025 0.0
0.0005522647034549404 -0.00037138169259779216 0.0
0.0005755045436063431 -0.0003817030140404195 0.0
0.0005987815284868596 -0.0003917472558855252 0.0
0.0006223323709932062 -0.00040156551995548947 0.0
0.0006460528069902219 -0.00041109110582262365 0.0
0.0006700879153603498 -0.00042039354260388156 0.0
0.0006941622769431803 -0.00042945259502783845 0.0
0.0007185816769355404 -0.0004382744799460902 0.0
0.0007431761335039231 -0.0004468163190046212 0.0
0.0007680359711376384 -0.00045515808417514444 0.0
0.0007930672301686826 -0.0004632533851132874 0.0
0.000818386708494396 -0.0004711617935688852 0.0
0.0008437427183897473 -0.00047878153026709023 0.0
0.0008694256922203583 -0.00048614706702555295 0.0
0.0008951558176829126 -0.0004931179972455454 0.0
0.0009210215586604005 -0.0004997085993963293 0.0
0.0009470819975490427 -0.0005060728262106229 0.0
0.0009732022379985703 -0.0005120175341574246 0.0
0.000999632403967575 -0.0005176912207716496 0.0
0.001026289757776825 -0.0005230042936686325 0.0
0.0010531200982587838 -0.0005280828109543603 0.0
0.0010802056235015795 -0.0005327654792539382 0.0
0.001107337043997222 -0.0005371783594428561 0.0
0.0011347477275911021 -0.0005413091499056391 0.0
0.0011622498211652128 -0.0005451126476154631 0.0
0.0011899049145114617 -0.0005487176204862985 0.0
0.0012177436771027025 -0.0005519799811139937 0.0
0.0012454807795368695 -0.0005548402029837304 0.0
0.0012734639970471947 -0.0005574914945224939 0.0
0.0013011507917232979 -0.0005597162106511762 0.0
0.0013292577496152684 -0.0005616267007010049 0.0
0.0013569524921992326 -0.0005631266973590032 0.0
0.0013852236004288625 -0.0005643298430025099 0.0
0.0014130375081553295 -0.0005652525226089937 0.0
0.0014406181777034876 -0.0005657215511905338 0.0
0.0014679102264586472 -0.0005659515820798846 0.0
0.0014944145180146667 -0.0005655176154892664 0.0
0.0015200795100153096 -0.0005644298771410296 0.0
0.0015457297569390293 -0.0005624525447822816 0.0
0.0015721439732473688 -0.0005603467208090155 0.0
0.0015981002886360188 -0.0005575821566450521 0.0
0.0016241093648081796 -0.0005547168254949922 0.0
0.001651148837537573 -0.0005517116601177289 0.0
0.0016768265572082793 -0.0005479157791400568 0.0
0.0017019939936502632 -0.000543418760292262 0.0
0.0017275825637188063 -0.0005377794982294404 0.0
0.0017536362944929214 -0.0005315962791202106 0.0
0.0017787317705577302 -0.0005246734397252697 0.0
0.001805326074208963 -0.0005169595450698608 0.0
0.0018308822910076748 -0.0005089580991802579 0.0
0.001856487363120085 -0.000500432151390401 0.0
0.0018828738476498838 -0.0004910358095859264 0.0
0.0019085200364161664 -0.0004810529200796176 0.0
0.001934480823322319 -0.00047029483614890945 0.0
0.0019602148700651914 -0.00045893511762295743 0.0
0.001986377662452212 -0.0004469869367625631 0.0
0.0020126556217676004 -0.0004343066641994239 0.0
0.002039119224859206 -0.00042114988613043455 0.0
0.002065388179961223 -0.0004073878390552973 0.0
0.0020917485882683347 -0.0003930625562058812 0.0
0.002118335488712921 -0.0003780378620518254 0.0
0.0021448878420942882 -0.0003624593092002908 0.0
0.0021716065714621133 -0.0003464239278607825 0.0
0.002198760867105718 -0.0003296957421983402 0.0
0.0022259889459723572 -0.0003123580415622296 0.0
0.002253279925444696 -0.0002944655962343021 0.0
0.0022809718133475023 -0.00027585834994102475 0.0
0.00230911389782581 -0.00025639621168830305 0.0
0.0023374987376123253 -0.00023609719286502498 0.0
0.0023661611839467175 -0.00021497274411277562 0.0
0.0023953517163821554 -0.00019274062597937196 0.0
0.0024254793060498984 -0.00016908631781936058 0.0
0.0024561582370918543 -0.00014382786553424298 0.0
0.0024877255736458106 -0.00011638123905544346 0.0
0.0025214881724825037 -8.55222839859959e-5 0.0
0.0025565031242007694 -4.97837604793788e-5 0.0
0.0025999999967400264 -1.4833068980115114e-11 0.0
0.002599999993036607 -1.7090288686903832e-11 0.0
0.002599999996203014 -8.887267362127901e-12 0.0
0.0025999999959861824 -7.603741936000055e-12 0.0
0.0025999999964468035 -5.736287002545982e-12 0.0
0.002599999996534589 -4.542529939277104e-12 0.0
0.0025999999965695838 -3.716278109659791e-12 0.0
0.002599999996699081 -3.0427009953388366e-12 0.0
0.0025999999967139076 -2.438959095481354e-12 0.0
0.0025999999968309324 -1.9320585821835403e-12 0.0
0.002599999996933471 -1.5502121954130482e-12 0.0
0.002599999997050397 -1.072757810499124e-12 0.0
0.0025999999971287424 -7.194071480887677e-13 0.0
0.0025999999972359618 -2.6690290324670906e-13 0.0
0.0025999999973029975 1.835050936335499e-13 0.0
0.002599999997344761 7.17359624412817e-13 0.0
0.002599999997398023 1.2748129754983115e-12 0.0
0.002599999997206774 1.9627553980006004e-12 0.0
0.0025999999974644786 2.511177148201044e-12 0.0
0.002599999997123346 3.239389166135298e-12 0.0
0.002599999997215134 3.720091320334936e-12 0.0
0.002599999997147831 4.1355634502637965e-12 0.0
0.0025999999972808894 4.154154584118044e-12 0.0
0.0025999999976860024 4.8228188078191715e-12 0.0
0.0025999999987452406 2.5155165482175803e-12 0.0
0.002414775683581759 7.84154392522739e-5 0.0
0.002256531008715485 0.00011328594986951877 0.0
0.0021173905978060176 0.000112627236334025 0.0
0.002000255711886604 9.31492910994067e-5 0.0
0.0019149678364087052 3.5898632924306366e-6 0.0
0.001903625405593999 -3.6792054326924994e-5 0.0
0.0018814261311251676 -6.813065722686294e-5 0.0
0.001845986674580293 -7.657880383087048e-5 0.0
0.0017993420496396342 -6.804291983929322e-5 0.0
0.0017493508712506426 -5.333814147063217e-5 0.0
0.0016976379519427968 -3.6635184135856144e-5 0.0
0.0016454509931931227 -1.8499902554277775e-5 0.0
0.0015919145016033284 -2.0908292316976208e-6 0.0
0.0015367950599890893 1.1940493987521787e-5 0.0
0.0014770306107254746 2.3778288189272815e-5 0.0
0.0014069041693022112 3.334590972011586e-5 0.0
0.0012410863952394106 8.02883038995956e-5 0.0
0.0011897772319628566 9.901101251360558e-5 0.0
0.0011470569619562866 0.0001117122216807533 0.0
0.0011095209812830708 0.00012253884208198777 0.0
0.001075218929363214 0.00013269686735203678 0.0
0.0010441410188989464 0.00014292395685818832 0.0
0.001016007560153382 0.00015414247796170774 0.0
0.0009918967893081101 0.00016670680259208115 0.0
0.0009732807252059498 0.00018481620508359754 0.0
0.0009597953104674874 0.00020573350672687253 0.0
0.000961185263611925 0.0002489336520590311 0.0
0.0009598178075304468 0.0003027194444912689 0.0
0.0008699643971462568 0.0004020839398402674 0.0
0.0007378959955912644 0.00039811993243739027 0.0
0.0005353827621562906 0.0003324598870777782 0.0
0.00029016139510702754 0.00021597154538561725 0.0
0.0006734409126316577 -0.00040439126878672073 0.0
0.0017731561587686988 -0.0004936791743064916 0.0
0.0008502836752417524 -0.0004641200337159407 0.0
0.0015884450751773357 -0.000537185892151782 0.0
0.0010382749544159463 -0.0005081524871692283 0.0
0.0013952952011614468 -0.0005426735237905232 0.0
0.0012023655355185637 -0.0005310482642247948 0.0
0.0019317173450154165 -0.0004425482521852566 0.0
0.0005361020446810175 -0.00035004023161809225 0.0
0.0020570045176448414 -0.00038235132204367755 0.0
0.0004230993518375177 -0.0002949483682624769 0.0
4.10982558397104e-5 -8.322511641389521e-6 0.0
0.002550475362067413 -3.2860331691147203e-6 0.0
0.0014104225956483659 5.439548971171162e-5 0.0
0.0016113327499812416 8.163115643399258e-6 0.0
0.0012127459878079733 7.626907584385691e-5 0.0
0.0010707156203023625 0.0001384300137744733 0.0
0.0021930619975977102 -0.0003094982838832333 0.0
0.0003185382753241168 -0.00023626976818072478 0.0
3.215002119563241e-5 -1.2082036077617702e-5 0.0
0.0025640717605911758 -6.22499532003178e-6 0.0
0.0025312924424062523 3.518496821790612e-6 0.0
5.249048161121525e-5 3.937739055363631e-7 0.0
0.0023039100859876707 -0.0002373170582336035 0.0
0.00022920204775893374 -0.00017659833495894137 0.0
0.0017562448969630688 -3.451317046844012e-5 0.0
0.0009729911021136239 0.00016986779354629674 0.0
2.5469014355797017e-5 -1.1787298560170748e-5 0.0
0.002571728745273244 -7.488649918320077e-6 0.0
0.0009586716269770884 -0.0004913565997659141 0.0
0.001118981780040796 -0.0005210611479088682 0.0
0.0015082411096773256 -0.0005444446919137927 0.0
0.0012882490640443215 -0.0005371280883745582 0.0
0.001668177305202507 -0.0005229051293382314 0.0
0.0018465631132394305 -0.0004744396609689442 0.0
0.0007797091331906005 -0.0004426962922391141 0.0
0.0006052707118867327 -0.0003805953515876621 0.0
0.002386373066797434 -0.00017879698964267591 0.0
0.00016272586757282823 -0.00013002022879943605 0.0
0.0025132836703223235 1.3990450279059019e-5 0.0
7.162485724842789e-5 8.328691704403176e-6 0.0
0.002577077704605887 -1.0174861516473713e-5 0.0
2.434895037361005e-5 -1.3539051005505184e-5 0.0
0.0018560765511913796 -5.0685694229676065e-5 0.0
0.0009265606420926986 0.00019913335960888162 0.0
0.0024782917819951202 2.2764040717682726e-5 0.0
0.0001092410114700382 1.71698878281368e-5 0.0
3.687046870850534e-5 -1.1166450923222016e-5 0.0
0.002556917316318914 -5.3629359835012645e-6 0.0
0.0015104516101056011 3.529345230314223e-5 0.0
0.0011420563067922197 0.00011569676802465341 0.0
9.167735230516776e-5 -7.403001467546482e-5 0.0
0.002485209129341009 -0.00010021062605990282 0.0
0.0017184631876714705 -0.0005132322423587842 0.0
0.001341927530720004 -0.0005414100781063204 0.0
0.0009077761955895572 -0.0004789435181966989 0.0
0.0007254874723936829 -0.00042577156602869166 0.0
0.0014543417057342094 -0.0005441495679876865 0.0
0.001979652845529379 -0.00042179453782254547 0.0
0.0004908332764121836 -0.00032837407745440626 0.0
0.002112694705138833 -0.00035528033704195107 0.0
0.0003767801033029769 -0.0002690395673196096 0.0
0.0002717009857981345 -0.00020570548795911304 0.0
0.0022480954064259054 -0.00027434418277027893 0.0
0.0006192961854019728 0.00020787485010514292 0.0
0.0021627086728954747 5.3977869373117185e-5 0.0
0.0025768210775724567 -1.5112530406789682e-5 0.0
2.1265369863050042e-5 -1.374527454783929e-5 0.0
0.0009126147243534494 0.00026697201230117384 0.0
0.001930553473256563 -1.0462913331351849e-5 0.0
0.00013482180972387283 2.8372655863951957e-5 0.0
0.002480107275863466 2.2118306370910433e-5 0.0
4.055768796699372e-5 -3.2348372408381655e-5 0.0
0.002549516038859699 -4.420894618977663e-5 0.0
0.002042623938699901 4.1721053644425716e-5 0.0
0.0020604565196514005 3.219740394871483e-5 0.0
0.0022153923868889866 4.1042197585258584e-5 0.0
0.002114897589658762 4.1431019506804094e-5 0.0
0.0019931287398212085 2.3619088406546764e-5 0.0
0.0020272714144026283 4.555203668279057e-5 0.0
0.002147014702277916 5.307519258801232e-5 0.0
0.002066200122053106 6.0978245442960435e-5 0.0
0.0021822357632820095 5.899310721217964e-5 0.0
0.0021090276112834807 6.601861752715813e-5 0.0
0.002000533043085709 6.83280418146709e-5 0.0
0.002041394162680195 7.024858469597256e-5 0.0
0.0019484510504685414 7.349068034023887e-5 0.0
0.001983069970379894 7.139552443260055e-5 0.0
0.0018998457848031687 7.569520554272848e-5 0.0
0.0019319790217264192 6.954179928818912e-5 0.0
0.0013785086960703139 2.9775379012482652e-5 0.0
0.001302769756394097 1.640003919272935e-5 0.0
0.0013566216036497083 1.2480759544534648e-5 0.0
0.001294526597747065 1.9756663840547e-6 0.0
0.001342172372220549 -1.4337833895966681e-6 0.0
0.0012885355690443034 -9.494143579261115e-6 0.0
0.0013316409381789417 -1.2329204088196535e-5 0.0
0.0012830321264830087 -1.9289567574486045e-5 0.0
0.001323213329923039 -2.1640065892328103e-5 0.0
0.0012780620360042492 -2.79913616193166e-5 0.0
0.00131623509696453 -2.9872630840073658e-5 0.0
0.0012735699760349772 -3.5933632990851e-5 0.0
0.001310284221387908 -3.7836786208986865e-5 0.0
0.0012705260363078399 -4.3554663494611646e-5 0.0
0.0013051236091490275 -4.542604165241865e-5 0.0
0.0012667155917528683 -5.105754648818622e-5 0.0
0.0013002902968505634 -5.284538911227807e-5 0.0
0.0012618998018347578 -5.850462208669712e-5 0.0
0.001295639613374993 -6.031538681284295e-5 0.0
0.0012581651701171063 -6.588873771796167e-5 0.0
0.001291454807958925 -6.786027178254557e-5 0.0
0.001254717122697627 -7.336710134962042e-5 0.0
0.0012863959030092612 -7.547115614069056e-5 0.0
0.001251141424117278 -8.098520706109356e-5 0.0
0.0012823989931197378 -8.318873489508138e-5 0.0
0.0012483339285355324 -8.852543916071978e-5 0.0
0.001278685023904989 -9.106587263647912e-5 0.0
0.0012435057671645589 -9.603639831527536e-5 0.0
0.0012746645968546944 -9.911586236930432e-5 0.0
0.0012321820110223326 -0.00010457880056226256 0.0
0.0012728889965144133 -0.00010741765282046081 0.0
0.0012366896957048492 -0.00011306575864075004 0.0
0.0012691497994773222 -0.0001159457851918333 0.0
0.0012347361810046103 -0.00012170806806838855 0.0
0.0012659821658942 -0.0001247606010292207 0.0
0.0012337935874272626 -0.000130451838656456 0.0
0.0012627319957618807 -0.0001337810606177588 0.0
0.0012313044932356974 -0.00013965146794207866 0.0
0.0012402311529523353 -2.402859786307502e-5 0.0
0.0012594872199214616 -0.0001430996867825762 0.0
0.0012242935137945403 -6.339038675947091e-5 0.0
0.0011990780621525647 -0.00011261009130251661 0.0
0.001226415272984381 -0.00014908732097285827 0.0
0.0012560435641412065 -0.00015270108491953073 0.0
0.0012215738703626597 -0.00015912700297007943 0.0
0.001192649804718126 -0.00015453456068140883 0.0
0.0011869638685674025 -0.0001650096790928887 0.0
0.001251291879980267 -0.00016320629067005253 0.0
0.0012862900018722212 -0.00015635347967414006 0.0
0.0013023069867893987 -0.00010986891568174901 0.0
0.0012817290561702363 -0.00016722412801784833 0.0
0.0013190388734673902 -0.0001591994966194502 0.0
0.0013131603697502628 -0.00017120456706560454 0.0
0.0011584115188322806 -0.00016008877941925845 0.0
0.0011540569292003932 -0.00017022715185588045 0.0
0.001351739810277973 -0.0001625002433990586 0.0
0.001123673991593328 -0.0001649872441798423 0.0
0.0011212573776969079 -0.00017546909812480747 0.0
0.0013464844691720703 -0.00017470795811932934 0.0
0.001383854923963909 -0.00016656048842642347 0.0
0.0010887785292854166 -0.00016980096184267835 0.0
0.0010856162163756459 -0.00018050292617608372 0.0
0.0013794161611611544 -0.00017874080771692404 0.0
0.0014179394710166066 -0.0001700974364419364 0.0
0.0010541243017215573 -0.00017441637878411764 0.0
0.0010506636540867054 -0.00018564620492352732 0.0
0.0014132928505538945 -0.00018297804280980126 0.0
0.001453011710057849 -0.00017352849165198372 0.0
0.0010199048550526009 -0.00017827290556011338 0.0
0.001014282021417275 -0.0001897605507777656 0.0
0.0014487557118489543 -0.00018677959825729525 0.0
0.0014888358137563798 -0.00017681173741337098 0.0
0.0009824509177982091 -0.00018197445242634818 0.0
0.0009777833093966462 -0.00019394498938153407 0.0
0.0009439689887571004 -0.00018614213109779214 0.0
0.0009486692939809912 -0.00017357932144351467 0.0
0.0014056047885009795 -0.0001958036091225187 0.0
0.0014842934837575276 -0.00019067006650704931 0.0
0.0015253214803558413 -0.00018001432896296127 0.0
0.001530594623337515 -0.00016571606464223527 0.0
0.0013207985582127406 -7.018756386187822e-5 0.0
0.0015687121399566462 -0.00016856216066227803 0.0
0.0015743937949006294 -0.00015368895176450407 0.0
0.0016139003286855208 -0.00015598314036160006 0.0
0.0009423010681029394 -0.00019890475367953782 0.0
0.000907052132077709 -0.00018962367643614094 0.0
0.0009755693797296433 -0.00020678237554947647 0.0
0.0015195024486030755 -0.00019472258302671107 0.0
0.0009059715326919741 -0.00020260957441209026 0.0
0.000870305709215939 -0.00019248873727501512 0.0
0.0013456341526911835 -3.8711334013507366e-5 0.0
0.0008693333629863735 -0.00020507156469414025 0.0
0.0008336657731449778 -0.00019464880717432023 0.0
0.0008329814139007729 -0.00020741866529209486 0.0
0.000797821763049156 -0.000195933000907737 0.0
0.0007977454773618008 -0.00018356033036487672 0.0
0.0007596461954368674 -0.00018500501703537376 0.0
0.0007601955934756632 -0.00017198234441280169 0.0
0.0007930569331536919 -0.00020835530546675082 0.0
0.0007191904892912103 -0.00017331266968006537 0.0
0.0007194475459521891 -0.00016001311747707058 0.0
0.0008328012772374766 -0.00022091580141809359 0.0
0.0007989209347528383 -0.00022291686235434693 0.0
0.0006793730430400942 -0.00016012927509928012 0.0
0.0006781534334077724 -0.00014705369972701777 0.0
0.0016207000535998304 -0.0001408798620866391 0.0
0.0016619032492284041 -0.00014289737353624218 0.0
0.0008327567065117368 -0.00023461281156574411 0.0
0.0007994753961142173 -0.00023642578376412203 0.0
0.001669184280373263 -0.00012730964541803023 0.0
0.0017124241065373082 -0.00012937410527374607 0.0
0.0017030652632907374 -0.00014658997802947062 0.0
0.0017540465341386012 -0.00013217013679014093 0.0
0.001745368483769219 -0.0001497940603376686 0.0
0.0017965295839424665 -0.00013407578545424276 0.0
0.001790257710135613 -0.00015153127608555703 0.0
0.0018432613202141455 -0.0001340203875045381 0.0
0.001832642178652342 -0.0001520827175882128 0.0
0.001849278023560965 -0.00011737615152670662 0.0
0.0018862224100764512 -0.00013485809334477195 0.0
0.0018729079535509255 -0.00015305268187737638 0.0
0.0008333076026350277 -0.000248607731956574 0.0
0.0006358336582261301 -0.00014657744804874917 0.0
0.0006336634381203933 -0.00013310154313694663 0.0
0.00182341501652711 -0.00017081811664120078 0.0
0.0018620122457685036 -0.00017166528322473893 0.0
0.0019106324452358267 -0.0001536290854428883 0.0
0.0018157746466918325 -0.00019009480189558897 0.0
0.0008009641381621054 -0.0002504212868452078 0.0
0.0018996991383785273 -0.00017212571218484798 0.0
0.001947227606365314 -0.00015357756373482963 0.0