# vtk DataFile Version 2.0
phase field modeling fracture
ASCII
DATASET UNSTRUCTURED_GRID
POINTS 2538 float
0.0 0.0 0.0
10.0 0.0 0.0
0.0 10.0 0.0
10.0 10.0 0.0
0.0 4.9995 0.0
0.0 5.0005 0.0
5.0 5.0 0.0
0.9416964895726688 0.0 0.0
1.803581725054446 0.0 0.0
2.592419885431098 0.0 0.0
3.314401822861676 0.0 0.0
3.975193910351406 0.0 0.0
4.579982132660152 0.0 0.0
5.133512780936812 0.0 0.0
5.640130319506143 0.0 0.0
6.103810708661955 0.0 0.0
6.528192895506818 0.0 0.0
6.916607540127679 0.0 0.0
7.272102969376355 0.0 0.0
7.597469242948583 0.0 0.0
7.895259826292669 0.0 0.0
8.167811885738017 0.0 0.0
8.417264413845215 0.0 0.0
8.645575169389538 0.0 0.0
8.854535961159101 0.0 0.0
9.045786767735546 0.0 0.0
9.220828555767493 0.0 0.0
9.38103509633881 0.0 0.0
9.527663687265145 0.0 0.0
9.661865124984566 0.0 0.0
9.784692609918062 0.0 0.0
9.897110148790482 0.0 0.0
10.0 0.09999999999992584 0.0
10.0 0.199999999999856 0.0
10.0 0.2999999999997771 0.0
10.0 0.3999999999996677 0.0
10.0 0.4999999999995511 0.0
10.0 0.5999999999994683 0.0
10.0 0.6999999999993983 0.0
10.0 0.7999999999993286 0.0
10.0 0.8999999999992587 0.0
10.0 0.9999999999991888 0.0
10.0 1.099999999999119 0.0
10.0 1.199999999999033 0.0
10.0 1.299999999998852 0.0
10.0 1.399999999998576 0.0
10.0 1.499999999998284 0.0
10.0 1.599999999997992 0.0
10.0 1.6999999999977 0.0
10.0 1.799999999997408 0.0
10.0 1.899999999997116 0.0
10.0 1.999999999996825 0.0
10.0 2.099999999996533 0.0
10.0 2.199999999996241 0.0
10.0 2.299999999995949 0.0
10.0 2.399999999995657 0.0
10.0 2.499999999995365 0.0
10.0 2.599999999995073 0.0
10.0 2.699999999994782 0.0
10.0 2.79999999999449 0.0
10.0 2.899999999994198 0.0
10.0 2.999999999993906 0.0
10.0 3.099999999993614 0.0
10.0 3.199999999993322 0.0
10.0 3.299999999993029 0.0
10.0 3.399999999992738 0.0
10.0 3.499999999992446 0.0
10.0 3.599999999992154 0.0
10.0 3.699999999991863 0.0
10.0 3.799999999991571 0.0
10.0 3.899999999991278 0.0
10.0 3.999999999991022 0.0
10.0 4.099999999991035 0.0
10.0 4.199999999991187 0.0
10.0 4.299999999991338 0.0
10.0 4.399999999991491 0.0
10.0 4.499999999991642 0.0
10.0 4.599999999991795 0.0
10.0 4.699999999991947 0.0
10.0 4.799999999992099 0.0
10.0 4.89999999999225 0.0
10.0 4.999999999992403 0.0
10.0 5.099999999992555 0.0
10.0 5.199999999992706 0.0
10.0 5.299999999992858 0.0
10.0 5.39999999999301 0.0
10.0 5.499999999993161 0.0
10.0 5.599999999993313 0.0
10.0 5.699999999993466 0.0
10.0 5.799999999993618 0.0
10.0 5.899999999993771 0.0
10.0 5.999999999993922 0.0
10.0 6.099999999994074 0.0
10.0 6.199999999994227 0.0
10.0 6.299999999994378 0.0
10.0 6.39999999999453 0.0
10.0 6.499999999994682 0.0
10.0 6.599999999994833 0.0
10.0 6.699999999994986 0.0
10.0 6.799999999995138 0.0
10.0 6.899999999995289 0.0
10.0 6.999999999995442 0.0
10.0 7.099999999995594 0.0
10.0 7.199999999995747 0.0
10.0 7.299999999995897 0.0
10.0 7.39999999999605 0.0
10.0 7.499999999996202 0.0
10.0 7.599999999996353 0.0
10.0 7.699999999996505 0.0
10.0 7.799999999996658 0.0
10.0 7.899999999996808 0.0
10.0 7.999999999996962 0.0
10.0 8.099999999997113 0.0
10.0 8.199999999997265 0.0
10.0 8.299999999997418 0.0
10.0 8.399999999997569 0.0
10.0 8.499999999997721 0.0
10.0 8.599999999997873 0.0
10.0 8.699999999998024 0.0
10.0 8.799999999998176 0.0
10.0 8.899999999998329 0.0
10.0 8.99999999999848 0.0
10.0 9.099999999998634 0.0
10.0 9.199999999998786 0.0
10.0 9.299999999998937 0.0
10.0 9.399999999999089 0.0
10.0 9.499999999999241 0.0
10.0 9.599999999999392 0.0
10.0 9.699999999999545 0.0
10.0 9.799999999999697 0.0
10.0 9.899999999999848 0.0
9.897110148790565 10.0 0.0
9.784692609918244 10.0 0.0
9.66186512498486 10.0 0.0
9.527663687265571 10.0 0.0
9.381035096339392 10.0 0.0
9.220828555768257 10.0 0.0
9.045786767736512 10.0 0.0
8.854535961160305 10.0 0.0
8.645575169391027 10.0 0.0
8.417264413847017 10.0 0.0
8.167811885740178 10.0 0.0
7.895259826295246 10.0 0.0
7.597469242951631 10.0 0.0
7.272102969379938 10.0 0.0
6.916607540131873 10.0 0.0
6.528192895511704 10.0 0.0
6.103810708667616 10.0 0.0
5.640130319512691 10.0 0.0
5.13351278094435 10.0 0.0
4.579982132668816 10.0 0.0
3.975193910361222 10.0 0.0
3.314401822869852 10.0 0.0
2.592419885437257 10.0 0.0
1.803581725058137 10.0 0.0
0.9416964895740705 10.0 0.0
0.0 9.00010000000243 0.0
0.0 8.000200000005481 0.0
0.0 7.000300000005135 0.0
0.0 6.000400000002569 0.0
0.901790731451151 5.000409820926855 0.0
1.657200899774397 5.000334279910023 0.0
2.289991063707192 5.000271000893629 0.0
2.820065163538221 5.000217993483646 0.0
3.264096435579811 5.000173590356442 0.0
3.636051481595835 5.00013639485184 0.0
3.947629914072366 5.000105237008593 0.0
4.208632181002628 5.0000791367819 0.0
4.427267949625672 5.000057273205037 0.0
4.610414277633563 5.000038958572237 0.0
4.763831845154243 5.000023616815485 0.0
4.892346298799659 5.00001076537012 0.0
4.892346298799748 4.99998923462988 0.0
4.763831845154455 4.999976383184515 0.0
4.610414277633943 4.999961041427763 0.0
4.427267949626277 4.999942726794963 0.0
4.208632181003523 4.9999208632181 0.0
3.94762991407365 4.999894762991407 0.0
3.636051481597624 4.99986360514816 0.0
3.264096435582253 4.999826409643559 0.0
2.820065163541503 4.999782006516354 0.0
2.289991063711534 4.999728999106371 0.0
1.657200899778495 4.999665720089978 0.0
0.9017907314530094 4.999590179073145 0.0
0.0 3.999600000002013 0.0
0.0 2.999700000005187 0.0
0.0 1.99980000000512 0.0
0.0 0.9999000000025537 0.0
9.897889398521345 2.93573355845387 0.0
9.906568249974548 7.060009441434234 0.0
9.913122631074113 3.64016132281653 0.0
9.922462129543863 6.354535290629151 0.0
9.917693659967533 4.354211663134567 0.0
9.909873057440208 5.637584487339942 0.0
9.914183254994697 4.950672966925282 0.0
9.913885043715895 7.666887930262611 0.0
9.91009668007573 2.351889069770817 0.0
9.905135696074536 8.138152454502785 0.0
9.913397459621809 1.849999999997262 0.0
7.099302372137626 0.297750452375005 0.0
7.095143729410097 9.700359990366296 0.0
4.942912558701401 5.095838627899509 0.0
4.315009232304429 5.165022115481685 0.0
4.946182472483878 4.906763777264103 0.0
4.317967462990024 4.825955043772673 0.0
9.916390871492647 8.64999999999792 0.0
9.921504649680616 1.368376469890358 0.0
8.292538149791614 0.206877570318844 0.0
8.292538149793597 9.793122429681448 0.0
5.884594439766573 9.587645267048616 0.0
5.794826292691579 0.3794853783929359 0.0
9.913397459621425 9.049999999998557 0.0
9.908526577714177 0.9568239351922434 0.0
3.456851160380649 5.315740054130451 0.0
3.457889657868442 4.707121019609468 0.0
8.945214200703926 0.1503383337970344 0.0
8.950161364448409 9.8413906539257 0.0
9.913862335499305 4.055887885208452 0.0
9.916697353372683 4.650158482607802 0.0
9.919076340414442 6.049999999994006 0.0
9.906994308667635 5.25749687748192 0.0
9.917490342358025 6.655979201891897 0.0
9.915757520293784 7.343848891656911 0.0
9.910049507471042 3.363474386285078 0.0
9.914471988502868 2.647400064832979 0.0
9.91474124160965 9.337490423485129 0.0
9.916971008170838 0.6499999999994355 0.0
4.307157269264427 9.509674045029644 0.0
4.331527375865619 0.4401616696422582 0.0
9.45434939180249 9.878397030523757 0.0
9.457696120412969 0.1270877537061785 0.0
2.555070293622606 5.422044496190925 0.0
2.566232917480916 4.608001224030952 0.0
3.026511860837692 9.332320638257093 0.0
2.945561971800619 0.5895662714727601 0.0
7.7395404387124 0.2511088946967771 0.0
7.736379255744154 9.745848826372828 0.0
4.687135269408529 5.122111433928926 0.0
4.688420821504113 4.871895064967488 0.0
9.910554884115975 0.3448356354522978 0.0
9.911230082250466 9.65764729394159 0.0
9.921953841410854 6.851023993342036 0.0
9.912065178606017 5.448170483544033 0.0
9.911660025326261 3.861846960030188 0.0
9.914847467973438 3.14501593945607 0.0
9.913397459621425 5.849999999993703 0.0
9.913397459621425 7.849999999996735 0.0
9.906916878988277 2.15455769998631 0.0
9.913397459621425 8.349999999997479 0.0
9.909472363117661 1.640528221515488 0.0
9.913987325695956 1.152857110636247 0.0
9.913397459621425 8.849999999998241 0.0
0.9100099990995943 2.614215977520411 0.0
0.8395284981715456 7.451196254860987 0.0
9.723278867451556 9.898135916635193 0.0
9.723316350887044 0.09841820909386662 0.0
1.385819164827588 4.454539963646463 0.0
1.338343629665047 5.523111536005823 0.0
1.377179700550677 0.6809168304959698 0.0
1.418060461092743 9.285896715136046 0.0
9.91268220142518 0.1457914080939694 0.0
9.906737126737994 9.845745933882352 0.0
0.7108351382691361 6.537941170074089 0.0
1.527735020267026 6.915620208855231 0.0
1.630993885659103 7.838271825205868 0.0
2.232760943566823 7.370850737296832 0.0
2.243414218068206 6.688299277952821 0.0
2.779655053105118 7.021588754814074 0.0
2.80227799359795 7.632420170547022 0.0
3.282022065908813 7.305859666021318 0.0
3.327597298795347 7.857554136825748 0.0
3.743210251018715 7.549183328204379 0.0
3.716353232200752 7.062036086888612 0.0
4.111978858674101 7.27497101169417 0.0
4.104192177581432 6.879858986267289 0.0
4.436230765617037 7.045693351607117 0.0
4.430360014817357 6.703971783962796 0.0
4.732390145036301 6.849841042423394 0.0
5.056161327708878 5.095276573498806 0.0
5.111586796021131 4.999081142133581 0.0
5.169267363407189 5.09444870412406 0.0
5.223795108752053 4.996986220359468 0.0
5.281480803887719 5.092780870372803 0.0
5.335670761900611 4.994887492556936 0.0
5.393485214772442 5.090486192743301 0.0
5.447323082877892 4.992601527033996 0.0
5.505243219343024 5.087953380710069 0.0
5.558739102026105 4.990287787962959 0.0
5.616491581184779 5.085335255235766 0.0
5.669852346908056 4.9879269227514 0.0
5.727502713908907 5.082679981817038 0.0
5.780766004135139 4.988313988715834 0.0
5.838244881129535 5.080480568766611 0.0
5.891357695677371 4.986433849408193 0.0
5.948696036767613 5.077969900389505 0.0
6.001601341641615 4.981313698556656 0.0
6.058851024265095 5.074871552128682 0.0
6.111614020704875 4.978360695880202 0.0
6.168801161530775 5.072044953270978 0.0
6.221368818778567 4.975825765213497 0.0
6.278268309066882 5.066182320461055 0.0
6.330814273567539 4.972837984645718 0.0
6.387565032421376 5.062889771971895 0.0
6.437476667631405 4.971693683589553 0.0
[...]
POINT_DATA 2538
VECTORS disp float
1.2757490991728975e-11 1.932687277668904e-11 0.0
3.775117674216213e-12 -9.847093461371705e-12 0.0
0.0014999999999857194 2.5180500709181987e-12 0.0
0.0014999999776501981 -4.871685845487272e-11 0.0
0.000704326014080044 0.00033704562558341977 0.0
0.0011522331386504539 -5.929700203478007e-6 0.0
0.0008600895223335745 -4.8659587708194945e-5 0.0
-1.7617860312474335e-12 -3.7313770744892084e-12 0.0
1.5460127973197353e-12 9.426466932911665e-13 0.0
8.394837695564912e-13 -1.0932922919653687e-12 0.0
8.508812856441377e-13 -8.162635937550778e-13 0.0
3.810116099458807e-13 -7.761321366894646e-13 0.0
4.5305019136061093e-13 -1.0953182286682716e-12 0.0
3.2598993431721723e-13 -1.1712476276552127e-12 0.0
2.741705370900341e-13 -1.475371094160562e-12 0.0
1.4722068634162912e-13 -1.75067104559998e-12 0.0
2.9804630145730863e-13 -2.1080043017966657e-12 0.0
2.8847564392674923e-13 -2.3828601482606047e-12 0.0
3.5629496368450913e-13 -2.630786577238016e-12 0.0
4.1250585213854063e-13 -2.8336755850645113e-12 0.0
3.9690709089595846e-13 -2.8966626818041985e-12 0.0
5.162645366850205e-13 -3.092543295278486e-12 0.0
4.900715291578086e-13 -3.0763104327944717e-12 0.0
5.095695248045975e-13 -3.2046777430894924e-12 0.0
6.104466263971943e-13 -3.2677608328331664e-12 0.0
5.743230420143815e-13 -3.3134095083407148e-12 0.0
6.17526237223741e-13 -3.4271081599343807e-12 0.0
6.876793527749446e-13 -3.558385496515187e-12 0.0
7.212386961384068e-13 -3.716388347253182e-12 0.0
6.749881415886176e-13 -3.962886715716836e-12 0.0
1.0243391400571614e-12 -4.450561149672531e-12 0.0
2.4815175456909307e-13 -3.7609612926509245e-12 0.0
2.0143477781076726e-5 -9.212599333577066e-6 0.0
3.61104171200986e-5 -1.6746848337392645e-5 0.0
5.197404965116153e-5 -2.3536096440041062e-5 0.0
6.71753025014392e-5 -2.9990030862628296e-5 0.0
8.165460748886248e-5 -3.6142164500323784e-5 0.0
9.574152658532911e-5 -4.220947397307954e-5 0.0
0.00010972780159305302 -4.79917653797399e-5 0.0
0.00012333296646700195 -5.363442328428403e-5 0.0
0.00013673164516716537 -5.918248655078725e-5 0.0
0.00015000463058171182 -6.453937613215315e-5 0.0
0.00016306801785368353 -6.98043673098224e-5 0.0
0.00017613434625125222 -7.492390571221343e-5 0.0
0.0001891541585846604 -7.989420635234829e-5 0.0
0.00020199310019356097 -8.470521154020663e-5 0.0
0.00021494600045377337 -8.948528202622274e-5 0.0
0.00022780523129229915 -9.422905546915325e-5 0.0
0.00024073482507422345 -9.894207155246234e-5 0.0
0.00025371197048432246 -0.00010356023182260455 0.0
0.00026662165140907233 -0.00010814928265070228 0.0
0.0002795197991097566 -0.00011271889792659237 0.0
0.00029251211866634545 -0.00011721193177961375 0.0
0.00030536864760627653 -0.00012165603104902101 0.0
0.00031838773060424025 -0.00012593437503733627 0.0
0.0003312797292271537 -0.00013012463432944202 0.0
0.0003443602919671046 -0.0001341879699116902 0.0
0.0003573120449193904 -0.00013809756466035412 0.0
0.00037033009272212396 -0.00014193928719820602 0.0
0.000383275175532549 -0.00014551203393570444 0.0
0.0003964588054955816 -0.00014896755778257792 0.0
0.00040937455512619393 -0.00015227224612499707 0.0
0.00042248209586135305 -0.00015534067478262682 0.0
0.00043553794208784974 -0.0001580992795741995 0.0
0.0004484754978720488 -0.0001606186565424999 0.0
0.000461168850033019 -0.00016284062862356597 0.0
0.00047416361568048684 -0.00016511574747194485 0.0
0.0004872744559505088 -0.0001675871972248082 0.0
0.0005005620287410716 -0.00017063857191458462 0.0
0.0005154335866847807 -0.000173931729943248 0.0
0.0005305315176919378 -0.00017775314702168308 0.0
0.0005463765177581756 -0.00018167847671062573 0.0
0.0005623199422149271 -0.00018584111715569122 0.0
0.0005772782021892138 -0.0001906473138123569 0.0
0.0005919036858173206 -0.00019478208223732657 0.0
0.0006046112181050665 -0.00019938406422826213 0.0
0.0006181691243758829 -0.00020278161377058985 0.0
0.0006311523748644438 -0.00020630507608570108 0.0
0.0006442426956126826 -0.0002095820630730016 0.0
0.0006581912416567498 -0.00021191887762209445 0.0
0.0006713777638735525 -0.00021483493385580514 0.0
0.000685921543151353 -0.0002168947867211612 0.0
0.0006991969580675154 -0.000219582792370931 0.0
0.0007128317898334343 -0.00022231608930216177 0.0
0.000725093780864128 -0.00022518796573060842 0.0
0.0007385169629866677 -0.0002271250896983384 0.0
0.0007511094695329788 -0.00022911517104678877 0.0
0.0007649172280795188 -0.00023055318938740895 0.0
0.0007790031030898389 -0.00023172258065439557 0.0
0.0007937782747139612 -0.0002326224155940413 0.0
0.0008093304292603762 -0.00023344068538337127 0.0
0.0008257139128473528 -0.00023399701938077867 0.0
0.000842622386833974 -0.00023447620099597798 0.0
0.0008598911850335899 -0.00023486091594902077 0.0
0.0008776797411761771 -0.0002352849348611831 0.0
0.0008953488042942378 -0.00023561502481715704 0.0
0.0009129756646046174 -0.0002360807845855825 0.0
0.0009300373473440372 -0.00023655351607313496 0.0
0.0009461219983990371 -0.000236830401635836 0.0
0.0009617427779249064 -0.00023697625969556528 0.0
0.0009776061343654005 -0.00023674426047055766 0.0
0.0009938774364629838 -0.00023620444418915302 0.0
0.001009652196262775 -0.00023525432695700252 0.0
0.0010259322552938603 -0.00023385843554712512 0.0
0.0010416320869089074 -0.00023246856433368124 0.0
0.001056919143758067 -0.00023090752658324302 0.0
0.0010719744341463628 -0.0002292040342937031 0.0
0.0010848661293954343 -0.00022749731840596642 0.0
0.0010968910452357277 -0.0002251308135127409 0.0
0.0011091622238275747 -0.00022312058343155875 0.0
0.00112170549668307 -0.00022106305525779952 0.0
0.0011334453598774203 -0.0002182087569860117 0.0
0.001147164525769026 -0.00021588182104230236 0.0
0.0011607226386732563 -0.0002139981037179366 0.0
0.0011749012701204624 -0.00021249468795059366 0.0
0.0011887102412863042 -0.00021005988037849045 0.0
0.001201497535421469 -0.00020641780703536947 0.0
0.0012144754780039244 -0.00020190677185337105 0.0
0.0012288055735689561 -0.00019580649981309334 0.0
0.0012435397782427778 -0.00018874109452978182 0.0
0.0012581678145812782 -0.0001818313252229846 0.0
0.0012732557325105052 -0.00017454687205749683 0.0
0.001289163130514541 -0.00016588296055955405 0.0
0.0013049755126503953 -0.00015587220760830716 0.0
0.001321529921082303 -0.0001446356868422597 0.0
0.0013390425966678839 -0.00013228794038098096 0.0
0.0013584877308624912 -0.00011835052117603678 0.0
0.0013796404952807926 -0.00010248998796032633 0.0
0.0014028004962742284 -8.439686108403736e-5 0.0
0.0014300760354323536 -6.318348498693953e-5 0.0
0.0014605368063157797 -3.752440537253767e-5 0.0
0.0015000000000438924 -1.6480126849192513e-12 0.0
0.0014999999964247922 -5.4467700610978496e-12 0.0
0.001499999998857973 -3.82083744652168e-13 0.0
0.001499999998172836 -6.671370767237332e-13 0.0
0.0014999999985882459 -1.7105550394712898e-14 0.0
0.0014999999986035782 3.2329488926066123e-13 0.0
0.0014999999986241223 4.3994971369905514e-13 0.0
0.0014999999987767338 5.558943278894979e-13 0.0
0.0014999999988088834 6.574431693355434e-13 0.0
0.0014999999989075917 7.158699889226588e-13 0.0
0.001499999998969138 7.799934530654205e-13 0.0
0.001499999999026673 9.1178127102851e-13 0.0
0.0014999999990225807 1.0182687951446273e-12 0.0
0.0014999999990312274 1.1477063899678747e-12 0.0
0.0014999999990178779 1.2646231994129196e-12 0.0
0.001499999999010064 1.3858230403339177e-12 0.0
0.0014999999989876128 1.480990038273982e-12 0.0
0.0014999999989797983 1.6208105835105844e-12 0.0
0.0014999999990239583 1.709007643452185e-12 0.0
0.0014999999990275553 1.7277928526411942e-12 0.0
0.0014999999990950466 1.6877089566351567e-12 0.0
0.0014999999991252015 1.5691063276726305e-12 0.0
0.0014999999993370596 1.4861673304105112e-12 0.0
0.0014999999995836902 1.6342012473978984e-12 0.0
0.0014999999996987022 1.2169240845528574e-12 0.0
0.0014105848045875304 2.451417237312175e-5 0.0
0.0013314621992364607 3.0080882502211424e-5 0.0
0.0012542805883929353 1.8868748607138108e-5 0.0
0.0011864654204922476 6.160990023816863e-6 0.0
0.0011349986619436617 -4.144476719294969e-5 0.0
0.0011254055270839755 -6.508660859528381e-5 0.0
0.0011211591713576683 -9.495811870124837e-5 0.0
0.0011111931081327923 -0.00011386476207406624 0.0
0.0010975828963295914 -0.00012639670797622645 0.0
0.0010801356755586492 -0.00013319779697030734 0.0
0.0010593574770058982 -0.00013575794535580936 0.0
0.0010361886180063201 -0.00013150517471735308 0.0
0.0010104100134843224 -0.00012325072384280396 0.0
0.0009825290329141762 -0.00011150839582958884 0.0
0.0009511319256035039 -9.69021168257156e-5 0.0
0.0009141124631302682 -7.935659320873603e-5 0.0
0.0008286294576528032 -1.108397706955961e-5 0.0
0.0008051714452375702 1.1112702670961897e-5 0.0
0.0007847412199710195 2.8999900822984418e-5 0.0
0.0007659581918353563 4.6423643351563266e-5 0.0
0.000747944474895928 6.380952028669769e-5 0.0
0.0007317314706715663 8.19674755684772e-5 0.0
0.00071686911936364 0.0001015434914603001 0.0
0.0007041881615654542 0.00012086124436695398 0.0
0.0006957043122789737 0.00014607172328231276 0.0
0.0006890595999669848 0.0001737454430725562 0.0
0.0006919897617043644 0.00021575097188565237 0.0
0.0006909790615181623 0.000263291433675406 0.0
0.0006251972020799353 0.00033511916839618376 0.0
0.0005308918757280258 0.0003274555637699002 0.0
0.00041720706310158006 0.0002857431555640353 0.0
0.00026613204088271034 0.00019731028668840643 0.0
0.00039931560919531845 -0.0001436676941667938 0.0
0.001004315102626431 -0.0002214152366814958 0.0
0.0004909560148937309 -0.00016282249585103053 0.0
0.0008872989743865929 -0.00022417302512807303 0.0
0.000595800721839654 -0.00018975143365236837 0.0
0.0007697495970038983 -0.0002188240336275549 0.0
0.0006774712140262488 -0.00020580872582157914 0.0
0.0010948340213970068 -0.00021550090093880835 0.0
0.00032296699873750144 -0.00012334703379125272 0.0
0.0011540736498595998 -0.00019968330575685064 0.0
0.00025781483066800035 -0.00010154439957406293 0.0
2.8014800014523022e-5 -6.940866926173929e-6 0.0
0.0014629019313809213 1.0239524810166615e-6 0.0
0.0008995153050447238 -5.131441161625552e-5 0.0
0.0010071345192223821 -0.00011438998879903282 0.0
0.0007991175222281583 -1.8996888111569548e-5 0.0
0.0007281780511589183 6.274060168230549e-5 0.0
0.0012255580143182335 -0.00017905411805460564 0.0
0.00019583325169880762 -7.900622932512642e-5 0.0
2.2923390630879193e-5 -5.823379624407051e-6 0.0
0.0014737349608334427 -8.32903306032748e-7 0.0
0.001447656142274054 2.8623688774051587e-6 0.0
3.201534828604383e-5 -4.158762176473556e-6 0.0
0.0012861054527294438 -0.00014641007485268964 0.0
0.00014147605321677203 -5.719850741100871e-5 0.0
0.0010777113565275534 -0.00011791689661785281 0.0
0.0006749540813562138 0.00011524864755848817 0.0
1.8145894527094832e-5 -4.450354331485794e-6 0.0
0.0014780074312074692 -1.3965482882404406e-6 0.0
0.0005526376756306823 -0.00017624215114001653 0.0
0.0006357414611024525 -0.0001995165815707918 0.0
0.0008340840298886795 -0.00022231180802243376 0.0
0.0007178182527654808 -0.00021293060989831635 0.0
0.0009391084345978086 -0.00022450767385407804 0.0
0.0010494919654621133 -0.0002196726499303147 0.0
0.0004556467195735448 -0.00015612952091416686 0.0
0.00036167796514892836 -0.0001349384707956154 0.0
0.0013348038825839572 -0.00011550196840242083 0.0
9.997731148807808e-5 -4.03208271413807e-5 0.0
0.001438748816376171 3.469102156078924e-6 0.0
4.439316402115523e-5 5.781547165488427e-7 0.0
0.0014815338514051622 -2.2826911034184514e-6 0.0
1.671404341775949e-5 -4.20267863201625e-6 0.0
0.0011204270272517163 -9.673534300063334e-5 0.0
0.000654063727800649 0.0001599246498523535 0.0
0.0014239358696317567 2.6022759835445184e-6 0.0
7.342847259234059e-5 4.434836446042287e-6 0.0
2.5953404415124138e-5 -6.682045019176403e-6 0.0
0.0014685321278029896 4.1950470955640345e-10 0.0
0.0009546622187654796 -9.047844155659128e-5 0.0
0.0007658279294022144 2.7090250675296428e-5 0.0
5.5575053020338156e-5 -2.1128785811933473e-5 0.0
0.0014027029222455308 -6.608658290480505e-5 0.0
0.0009701767182749262 -0.0002249991449128602 0.0
0.0007434777048778069 -0.00021727944292993217 0.0
0.0005223889588177778 -0.00016903700042585277 0.0
0.0004272123254807184 -0.00015090262867867697 0.0
0.0008013346523685749 -0.0002205922738097587 0.0
0.0011172758565808323 -0.00021095106503798205 0.0
0.0002971527555265853 -0.00011493448817526087 0.0
0.0011835834553182987 -0.00019391228521067986 0.0
0.00023052095870615047 -9.143574467116046e-5 0.0
0.00016747040863942855 -6.78177485981322e-5 0.0
0.0012550727171681724 -0.00016337104481105335 0.0
0.0004555286872920835 0.00018256947734090172 0.0
0.001273271469413155 -6.207234241217332e-6 0.0
0.0014812303015373344 -5.279922973831439e-6 0.0
1.389438683464973e-5 -3.808685405450874e-6 0.0
0.0006467036724407943 0.00023172442692916614 0.0
0.0011457755629369793 -4.889595622697931e-5 0.0
9.967095886301842e-5 1.3997890661753387e-5 0.0
0.0014345577214604785 3.7310979752514118e-6 0.0
2.42651613970494e-5 -8.42406746966467e-6 0.0
0.0014556594678090812 -2.6862237638819858e-5 0.0
0.00121184132737821 -1.6371904821831633e-5 0.0
0.001218077929748324 -2.698050315599744e-5 0.0
0.0012899178976737448 -1.1044145505937907e-5 0.0
0.0012319809607493825 -2.3964097095083685e-5 0.0
0.0011750771629395883 -4.6050631228929276e-5 0.0
0.0011784824848864509 -3.741078953269072e-5 0.0
0.0012373481821428174 -1.86817670672391e-5 0.0
0.0011853722459761818 -2.5384995319816186e-5 0.0
0.0012469630539626612 -1.146995794109971e-5 0.0
0.0011978632241652985 -1.3993635826717485e-5 0.0
0.0011416080985840683 -2.7875972892127544e-5 0.0
0.0011523880209303482 -1.4156720037448168e-5 0.0
0.0011049819939108613 -2.540123695175089e-5 0.0
0.0011130888068602476 -1.2304858244657396e-5 0.0
0.0010716166908705076 -2.120243270284619e-5 0.0
0.0010791842439564071 -8.345983444781354e-6 0.0
0.0008850368321268019 -4.7113564368987634e-5 0.0
0.0008481157605355099 -5.5453619608247955e-5 0.0
0.0008683719894631985 -4.9016909757788797e-5 0.0
0.0008363870758990912 -5.789868498662134e-5 0.0
0.0008546669003719408 -5.1922232939567404e-5 0.0
0.0008263376987967232 -5.9409373118252684e-5 0.0
0.0008422572705539904 -5.3110961122013755e-5 0.0
0.0008163716207766955 -6.008849959743227e-5 0.0
0.0008307646912826401 -5.395673801368066e-5 0.0
0.0008066135225812812 -6.0891528819042115e-5 0.0
0.0008201863765250177 -5.495673553405907e-5 0.0
0.0007974760798135264 -6.132213689357497e-5 0.0
0.0008104751242524463 -5.585990395671792e-5 0.0
0.0007894039286145343 -6.124573524903277e-5 0.0
0.0008015098874229868 -5.597221622799862e-5 0.0
0.0007811836740774723 -6.11341315018559e-5 0.0
0.0007931336161635104 -5.6272615357707274e-5 0.0
0.0007728781757774658 -6.144750519866942e-5 0.0
0.000785256433694035 -5.679234462382444e-5 0.0
0.0007656879702106293 -6.121724975793853e-5 0.0
0.0007780452316040999 -5.6903111970769246e-5 0.0
0.0007589907663509881 -6.10524599705713e-5 0.0
0.0007707630522233887 -5.714797367479212e-5 0.0
0.0007524825974193894 -6.116168511333536e-5 0.0
0.0007642579064307027 -5.767386975348288e-5 0.0
0.000746787080480188 -6.14673552449659e-5 0.0
0.0007581237880089017 -5.825292539017001e-5 0.0
0.0007404837678685169 -6.216086929582651e-5 0.0
0.0007521099770741429 -5.913976887329115e-5 0.0
0.000731128800391674 -6.374482412438843e-5 0.0
0.000747315372796263 -6.010548187407519e-5 0.0
0.0007291713158927367 -6.37409241370932e-5 0.0
0.0007420534457872501 -6.123920286102513e-5 0.0
0.00072470113370849 -6.479087256928361e-5 0.0
0.0007372334076841779 -6.267489489238562e-5 0.0
0.0007209588706330761 -6.597669650608117e-5 0.0
0.0007325785158634348 -6.428689372521185e-5 0.0
0.0007167005993462209 -6.74816040587166e-5 0.0
0.0007891933837461624 -6.516626005247771e-5 0.0
0.0007281434361667152 -6.612854004821412e-5 0.0
0.000752385172373257 -6.542307546604174e-5 0.0
0.0007128264743572905 -6.698987242328692e-5 0.0
0.0007115905411964474 -6.94358220893868e-5 0.0
0.0007238280713909931 -6.825793159607514e-5 0.0
0.0007066299669695394 -7.165119185259338e-5 0.0
0.000694816955711365 -7.251347714691081e-5 0.0
0.0006894599380187675 -7.474991465153275e-5 0.0
0.0007189614912601558 -7.077736636935115e-5 0.0
0.0007364037075567218 -6.71782007105996e-5 0.0
0.0007588990437935141 -5.768254310660969e-5 0.0
0.0007317021739510151 -6.998360213664785e-5 0.0
0.0007503665183670538 -6.589307701551856e-5 0.0
0.0007449866822086364 -6.928019307474386e-5 0.0
0.0006777242307548783 -7.544375140807278e-5 0.0
0.0006731346883440759 -7.745812636137413e-5 0.0
0.0007643135437039916 -6.486126145450102e-5 0.0
0.0006603666418129545 -7.81029628489273e-5 0.0
0.0006566670933135013 -8.001458694698294e-5 0.0
0.0007593455337113965 -6.850617449788913e-5 0.0
0.0007779509906015096 -6.42416994861264e-5 0.0
0.0006427575620070667 -8.056749371756647e-5 0.0
0.0006387585330969434 -8.244589688955217e-5 0.0
0.0007735321123851166 -6.807356512955632e-5 0.0
0.0007927357247886137 -6.355746857908222e-5 0.0
0.0006250625933358139 -8.274555847112478e-5 0.0
0.0006208556369164796 -8.475205311934831e-5 0.0
0.000788249251638776 -6.783761364682003e-5 0.0
0.0008081748898757797 -6.297949013371663e-5 0.0
0.0006073796939992979 -8.47003635426298e-5 0.0
0.0006021376497378324 -8.671626183978987e-5 0.0
0.0008039647154526058 -6.758744928685863e-5 0.0
0.000824202110073712 -6.252834986541603e-5 0.0
0.0005878544524700921 -8.645150535796641e-5 0.0
0.000583053024605648 -8.844679429630862e-5 0.0
0.0005673030677438246 -8.80346500669616e-5 0.0
0.0005723529946610338 -8.621823117893368e-5 0.0
0.0007826598487475003 -7.233392167852286e-5 0.0
0.0008199486064681318 -6.758800779234165e-5 0.0
0.0008409037720112547 -6.225489022218638e-5 0.0
0.0008456808355374808 -5.6901852049573776e-5 0.0
0.0007879899241621314 -5.304518860288474e-5 0.0
0.0008633981424833606 -5.644673722332901e-5 0.0
0.0008685291900390081 -5.0816147234666065e-5 0.0
0.0008872217690806177 -5.012765146735089e-5 0.0
0.0005639804774967912 -9.013218949478618e-5 0.0
0.0005473702292928194 -8.930173490078484e-5 0.0
0.0005795561404758076 -9.084859368193446e-5 0.0
0.0008361133091068339 -6.789980290703214e-5 0.0
0.00054441631399418 -9.145671211481318e-5 0.0
0.0005273843150809136 -9.030297254058903e-5 0.0
0.0008214956926123618 -5.0079262468936714e-5 0.0
0.0005247026180860993 -9.2315495923097e-5 0.0
0.0005074226985649341 -9.087117458147833e-5 0.0
0.0005049986813751373 -9.292925966237117e-5 0.0
0.0004878733589783055 -9.104594731315998e-5 0.0
0.0004897901139836976 -8.927056453977362e-5 0.0
0.00046846414739376866 -8.918800186471731e-5 0.0
0.0004706776468154051 -8.741426521577603e-5 0.0
0.0004834105452541981 -9.30750199536456e-5 0.0
0.0004472832019714473 -8.688085907932198e-5 0.0
0.0004492594702641501 -8.525846376875317e-5 0.0
0.0005028604634826716 -9.539466294747375e-5 0.0
0.00048443733525069406 -9.584507050461476e-5 0.0
0.0004260980336313558 -8.419267104464837e-5 0.0
0.00042695860860628685 -8.260502077346852e-5 0.0
0.0008929210690729352 -4.445090391688771e-5 0.0
0.0009127366163538836 -4.365933216614241e-5 0.0
0.0005008783488235369 -9.82196527933859e-5 0.0
0.0004829188584541759 -9.862486441251268e-5 0.0
0.0009186625266196264 -3.785394925897498e-5 0.0
0.0009398023847597876 -3.7095933432408173e-5 0.0
0.0009329014693045185 -4.382956631099726e-5 0.0
0.0009606918381377212 -3.699741095110359e-5 0.0
0.0009544291158110545 -4.424100397997257e-5 0.0
0.0009829234007394552 -3.6947155149391995e-5 0.0
0.0009782511944334503 -4.445709640767977e-5 0.0
0.0010083432922668848 -3.640557619305549e-5 0.0
0.0010014728562598998 -4.453135630005983e-5 0.0
0.0010126445133243234 -2.957400174716477e-5 0.0
0.0010323672963686976 -3.66067818912212e-5 0.0
0.0010242583201949722 -4.525031174412707e-5 0.0
0.0004993221907223376 -0.00010134255548225514 0.0
0.00040208617353652647 -8.100775610144922e-5 0.0
0.00040213007244624274 -7.922756165269502e-5 0.0
0.000995555785889652 -5.380582887803942e-5 0.0
0.0010176375899624778 -5.494501343714476e-5 0.0
0.0010464031627230395 -4.6173325490409995e-5 0.0
0.0009909053075924609 -6.390482896767848e-5 0.0
0.0004819714163764339 -0.00010173887582994505 0.0
0.0010400236351304072 -5.643540207688194e-5 0.0
0.0010686237508757599 -4.7269246419860046e-5 0.0
0.0004979205932064371 -0.00010479256799035913 0.0