# vtk DataFile Version 2.0
phase field modeling fracture
ASCII
DATASET UNSTRUCTURED_GRID
POINTS 2538 float
0.0 0.0 0.0
10.0 0.0 0.0
0.0 10.0 0.0
10.0 10.0 0.0
0.0 4.9995 0.0
0.0 5.0005 0.0
5.0 5.0 0.0
0.9416964895726688 0.0 0.0
1.803581725054446 0.0 0.0
2.592419885431098 0.0 0.0
3.314401822861676 0.0 0.0
3.975193910351406 0.0 0.0
4.579982132660152 0.0 0.0
5.133512780936812 0.0 0.0
5.640130319506143 0.0 0.0
6.103810708661955 0.0 0.0
6.528192895506818 0.0 0.0
6.916607540127679 0.0 0.0
7.272102969376355 0.0 0.0
7.597469242948583 0.0 0.0
7.895259826292669 0.0 0.0
8.167811885738017 0.0 0.0
8.417264413845215 0.0 0.0
8.645575169389538 0.0 0.0
8.854535961159101 0.0 0.0
9.045786767735546 0.0 0.0
9.220828555767493 0.0 0.0
9.38103509633881 0.0 0.0
9.527663687265145 0.0 0.0
9.661865124984566 0.0 0.0
9.784692609918062 0.0 0.0
9.897110148790482 0.0 0.0
10.0 0.09999999999992584 0.0
10.0 0.199999999999856 0.0
10.0 0.2999999999997771 0.0
10.0 0.3999999999996677 0.0
10.0 0.4999999999995511 0.0
10.0 0.5999999999994683 0.0
10.0 0.6999999999993983 0.0
10.0 0.7999999999993286 0.0
10.0 0.8999999999992587 0.0
10.0 0.9999999999991888 0.0
10.0 1.099999999999119 0.0
10.0 1.199999999999033 0.0
10.0 1.299999999998852 0.0
10.0 1.399999999998576 0.0
10.0 1.499999999998284 0.0
10.0 1.599999999997992 0.0
10.0 1.6999999999977 0.0
10.0 1.799999999997408 0.0
10.0 1.899999999997116 0.0
10.0 1.999999999996825 0.0
10.0 2.099999999996533 0.0
10.0 2.199999999996241 0.0
10.0 2.299999999995949 0.0
10.0 2.399999999995657 0.0
10.0 2.499999999995365 0.0
10.0 2.599999999995073 0.0
10.0 2.699999999994782 0.0
10.0 2.79999999999449 0.0
10.0 2.899999999994198 0.0
10.0 2.999999999993906 0.0
10.0 3.099999999993614 0.0
10.0 3.199999999993322 0.0
10.0 3.299999999993029 0.0
10.0 3.399999999992738 0.0
10.0 3.499999999992446 0.0
10.0 3.599999999992154 0.0
10.0 3.699999999991863 0.0
10.0 3.799999999991571 0.0
10.0 3.899999999991278 0.0
10.0 3.999999999991022 0.0
10.0 4.099999999991035 0.0
10.0 4.199999999991187 0.0
10.0 4.299999999991338 0.0
10.0 4.399999999991491 0.0
10.0 4.499999999991642 0.0
10.0 4.599999999991795 0.0
10.0 4.699999999991947 0.0
10.0 4.799999999992099 0.0
10.0 4.89999999999225 0.0
10.0 4.999999999992403 0.0
10.0 5.099999999992555 0.0
10.0 5.199999999992706 0.0
10.0 5.299999999992858 0.0
10.0 5.39999999999301 0.0
10.0 5.499999999993161 0.0
10.0 5.599999999993313 0.0
10.0 5.699999999993466 0.0
10.0 5.799999999993618 0.0
10.0 5.899999999993771 0.0
10.0 5.999999999993922 0.0
10.0 6.099999999994074 0.0
10.0 6.199999999994227 0.0
10.0 6.299999999994378 0.0
10.0 6.39999999999453 0.0
10.0 6.499999999994682 0.0
10.0 6.599999999994833 0.0
10.0 6.699999999994986 0.0
10.0 6.799999999995138 0.0
10.0 6.899999999995289 0.0
10.0 6.999999999995442 0.0
10.0 7.099999999995594 0.0
10.0 7.199999999995747 0.0
10.0 7.299999999995897 0.0
10.0 7.39999999999605 0.0
10.0 7.499999999996202 0.0
10.0 7.599999999996353 0.0
10.0 7.699999999996505 0.0
10.0 7.799999999996658 0.0
10.0 7.899999999996808 0.0
10.0 7.999999999996962 0.0
10.0 8.099999999997113 0.0
10.0 8.199999999997265 0.0
10.0 8.299999999997418 0.0
10.0 8.399999999997569 0.0
10.0 8.499999999997721 0.0
10.0 8.599999999997873 0.0
10.0 8.699999999998024 0.0
10.0 8.799999999998176 0.0
10.0 8.899999999998329 0.0
10.0 8.99999999999848 0.0
10.0 9.099999999998634 0.0
10.0 9.199999999998786 0.0
10.0 9.299999999998937 0.0
10.0 9.399999999999089 0.0
10.0 9.499999999999241 0.0
10.0 9.599999999999392 0.0
10.0 9.699999999999545 0.0
10.0 9.799999999999697 0.0
10.0 9.899999999999848 0.0
9.897110148790565 10.0 0.0
9.784692609918244 10.0 0.0
9.66186512498486 10.0 0.0
9.527663687265571 10.0 0.0
9.381035096339392 10.0 0.0
9.220828555768257 10.0 0.0
9.045786767736512 10.0 0.0
8.854535961160305 10.0 0.0
8.645575169391027 10.0 0.0
8.417264413847017 10.0 0.0
8.167811885740178 10.0 0.0
7.895259826295246 10.0 0.0
7.597469242951631 10.0 0.0
7.272102969379938 10.0 0.0
6.916607540131873 10.0 0.0
6.528192895511704 10.0 0.0
6.103810708667616 10.0 0.0
5.640130319512691 10.0 0.0
5.13351278094435 10.0 0.0
4.579982132668816 10.0 0.0
3.975193910361222 10.0 0.0
3.314401822869852 10.0 0.0
2.592419885437257 10.0 0.0
1.803581725058137 10.0 0.0
0.9416964895740705 10.0 0.0
0.0 9.00010000000243 0.0
0.0 8.000200000005481 0.0
0.0 7.000300000005135 0.0
0.0 6.000400000002569 0.0
0.901790731451151 5.000409820926855 0.0
1.657200899774397 5.000334279910023 0.0
2.289991063707192 5.000271000893629 0.0
2.820065163538221 5.000217993483646 0.0
3.264096435579811 5.000173590356442 0.0
3.636051481595835 5.00013639485184 0.0
3.947629914072366 5.000105237008593 0.0
4.208632181002628 5.0000791367819 0.0
4.427267949625672 5.000057273205037 0.0
4.610414277633563 5.000038958572237 0.0
4.763831845154243 5.000023616815485 0.0
4.892346298799659 5.00001076537012 0.0
4.892346298799748 4.99998923462988 0.0
4.763831845154455 4.999976383184515 0.0
4.610414277633943 4.999961041427763 0.0
4.427267949626277 4.999942726794963 0.0
4.208632181003523 4.9999208632181 0.0
3.94762991407365 4.999894762991407 0.0
3.636051481597624 4.99986360514816 0.0
3.264096435582253 4.999826409643559 0.0
2.820065163541503 4.999782006516354 0.0
2.289991063711534 4.999728999106371 0.0
1.657200899778495 4.999665720089978 0.0
0.9017907314530094 4.999590179073145 0.0
0.0 3.999600000002013 0.0
0.0 2.999700000005187 0.0
0.0 1.99980000000512 0.0
0.0 0.9999000000025537 0.0
9.897889398521345 2.93573355845387 0.0
9.906568249974548 7.060009441434234 0.0
9.913122631074113 3.64016132281653 0.0
9.922462129543863 6.354535290629151 0.0
9.917693659967533 4.354211663134567 0.0
9.909873057440208 5.637584487339942 0.0
9.914183254994697 4.950672966925282 0.0
9.913885043715895 7.666887930262611 0.0
9.91009668007573 2.351889069770817 0.0
9.905135696074536 8.138152454502785 0.0
9.913397459621809 1.849999999997262 0.0
7.099302372137626 0.297750452375005 0.0
7.095143729410097 9.700359990366296 0.0
4.942912558701401 5.095838627899509 0.0
4.315009232304429 5.165022115481685 0.0
4.946182472483878 4.906763777264103 0.0
4.317967462990024 4.825955043772673 0.0
9.916390871492647 8.64999999999792 0.0
9.921504649680616 1.368376469890358 0.0
8.292538149791614 0.206877570318844 0.0
8.292538149793597 9.793122429681448 0.0
5.884594439766573 9.587645267048616 0.0
5.794826292691579 0.3794853783929359 0.0
9.913397459621425 9.049999999998557 0.0
9.908526577714177 0.9568239351922434 0.0
3.456851160380649 5.315740054130451 0.0
3.457889657868442 4.707121019609468 0.0
8.945214200703926 0.1503383337970344 0.0
8.950161364448409 9.8413906539257 0.0
9.913862335499305 4.055887885208452 0.0
9.916697353372683 4.650158482607802 0.0
9.919076340414442 6.049999999994006 0.0
9.906994308667635 5.25749687748192 0.0
9.917490342358025 6.655979201891897 0.0
9.915757520293784 7.343848891656911 0.0
9.910049507471042 3.363474386285078 0.0
9.914471988502868 2.647400064832979 0.0
9.91474124160965 9.337490423485129 0.0
9.916971008170838 0.6499999999994355 0.0
4.307157269264427 9.509674045029644 0.0
4.331527375865619 0.4401616696422582 0.0
9.45434939180249 9.878397030523757 0.0
9.457696120412969 0.1270877537061785 0.0
2.555070293622606 5.422044496190925 0.0
2.566232917480916 4.608001224030952 0.0
3.026511860837692 9.332320638257093 0.0
2.945561971800619 0.5895662714727601 0.0
7.7395404387124 0.2511088946967771 0.0
7.736379255744154 9.745848826372828 0.0
4.687135269408529 5.122111433928926 0.0
4.688420821504113 4.871895064967488 0.0
9.910554884115975 0.3448356354522978 0.0
9.911230082250466 9.65764729394159 0.0
9.921953841410854 6.851023993342036 0.0
9.912065178606017 5.448170483544033 0.0
9.911660025326261 3.861846960030188 0.0
9.914847467973438 3.14501593945607 0.0
9.913397459621425 5.849999999993703 0.0
9.913397459621425 7.849999999996735 0.0
9.906916878988277 2.15455769998631 0.0
9.913397459621425 8.349999999997479 0.0
9.909472363117661 1.640528221515488 0.0
9.913987325695956 1.152857110636247 0.0
9.913397459621425 8.849999999998241 0.0
0.9100099990995943 2.614215977520411 0.0
0.8395284981715456 7.451196254860987 0.0
9.723278867451556 9.898135916635193 0.0
9.723316350887044 0.09841820909386662 0.0
1.385819164827588 4.454539963646463 0.0
1.338343629665047 5.523111536005823 0.0
1.377179700550677 0.6809168304959698 0.0
1.418060461092743 9.285896715136046 0.0
9.91268220142518 0.1457914080939694 0.0
9.906737126737994 9.845745933882352 0.0
0.7108351382691361 6.537941170074089 0.0
1.527735020267026 6.915620208855231 0.0
1.630993885659103 7.838271825205868 0.0
2.232760943566823 7.370850737296832 0.0
2.243414218068206 6.688299277952821 0.0
2.779655053105118 7.021588754814074 0.0
2.80227799359795 7.632420170547022 0.0
3.282022065908813 7.305859666021318 0.0
3.327597298795347 7.857554136825748 0.0
3.743210251018715 7.549183328204379 0.0
3.716353232200752 7.062036086888612 0.0
4.111978858674101 7.27497101169417 0.0
4.104192177581432 6.879858986267289 0.0
4.436230765617037 7.045693351607117 0.0
4.430360014817357 6.703971783962796 0.0
4.732390145036301 6.849841042423394 0.0
5.056161327708878 5.095276573498806 0.0
5.111586796021131 4.999081142133581 0.0
5.169267363407189 5.09444870412406 0.0
5.223795108752053 4.996986220359468 0.0
5.281480803887719 5.092780870372803 0.0
5.335670761900611 4.994887492556936 0.0
5.393485214772442 5.090486192743301 0.0
5.447323082877892 4.992601527033996 0.0
5.505243219343024 5.087953380710069 0.0
5.558739102026105 4.990287787962959 0.0
5.616491581184779 5.085335255235766 0.0
5.669852346908056 4.9879269227514 0.0
5.727502713908907 5.082679981817038 0.0
5.780766004135139 4.988313988715834 0.0
5.838244881129535 5.080480568766611 0.0
5.891357695677371 4.986433849408193 0.0
5.948696036767613 5.077969900389505 0.0
6.001601341641615 4.981313698556656 0.0
6.058851024265095 5.074871552128682 0.0
6.111614020704875 4.978360695880202 0.0
6.168801161530775 5.072044953270978 0.0
6.221368818778567 4.975825765213497 0.0
6.278268309066882 5.066182320461055 0.0
6.330814273567539 4.972837984645718 0.0
6.387565032421376 5.062889771971895 0.0
6.437476667631405 4.971693683589553 0.0
[...]
POINT_DATA 2538
VECTORS disp float
1.7983705608018006e-11 4.542704107592702e-11 0.0
3.7237388517184645e-11 -1.0170526924296857e-10 0.0
0.004199999985741505 3.7296232174532633e-11 0.0
0.004199999961417036 -1.0651906443137484e-10 0.0
0.001350399365123337 0.0005612168072468507 0.0
0.003027885986099533 0.0003441968253782827 0.0
0.0020665554652661918 0.00012590934106269328 0.0
4.8334584458949294e-12 4.0859995296492655e-12 0.0
8.846867665734428e-12 1.0711089371211972e-11 0.0
8.065569392539635e-12 6.578112148631713e-12 0.0
7.890808707262437e-12 6.088631201241151e-12 0.0
7.367931262574229e-12 4.5139099645148315e-12 0.0
6.8786909196782675e-12 3.2159338016007696e-12 0.0
6.430170755507969e-12 1.8571012048138908e-12 0.0
6.074709289678222e-12 4.2289855123027325e-13 0.0
5.330957258800574e-12 -1.1525650145704033e-12 0.0
5.609503044585724e-12 -2.551742662983617e-12 0.0
5.372475950020378e-12 -4.1694669714084556e-12 0.0
5.373895701210055e-12 -5.8988441717583635e-12 0.0
5.535248298699658e-12 -7.630230135648873e-12 0.0
5.486194371503556e-12 -9.269040136808712e-12 0.0
5.806348120072061e-12 -1.1230578084608507e-11 0.0
5.815127542462729e-12 -1.2887643884311447e-11 0.0
6.149687285775847e-12 -1.4833647822953416e-11 0.0
6.273905932230253e-12 -1.7042278887577577e-11 0.0
6.553883010113485e-12 -1.912336536160391e-11 0.0
6.864906897588776e-12 -2.1616583647324115e-11 0.0
7.268097086312038e-12 -2.4408796603542035e-11 0.0
7.99398373167648e-12 -2.778459805167541e-11 0.0
8.043031384809703e-12 -3.138078688694441e-11 0.0
1.090805114700433e-11 -3.9554238056739606e-11 0.0
4.7546373348511505e-12 -3.625610006832451e-11 0.0
5.215076315846879e-5 -6.969421875663493e-5 0.0
9.015780963431532e-5 -0.0001202532922537937 0.0
0.000127016657890423 -0.00016432389365700592 0.0
0.00016231412062464942 -0.0002043810495343487 0.0
0.00019652435601014858 -0.00024162366413501467 0.0
0.00023034856872367266 -0.0002769792028201009 0.0
0.000264338991265525 -0.0003105977514856636 0.0
0.00029817233471239206 -0.00034274619880368884 0.0
0.00033214016247085727 -0.00037371022167882696 0.0
0.00036632230586870285 -0.0004034967515376665 0.0
0.00040073760734285577 -0.0004323553127376024 0.0
0.0004356383679797575 -0.0004602992896311618 0.0
0.0004707595616115969 -0.00048732730449435943 0.0
0.0005062777017185791 -0.0005136403842361302 0.0
0.0005424000240103255 -0.0005391957028778063 0.0
0.0005787326429246306 -0.0005639599206225097 0.0
0.0006155269115279806 -0.0005880770884623375 0.0
0.0006527701275361438 -0.0006114345752711596 0.0
0.0006904341601685522 -0.0006341610127527284 0.0
0.000728536800175074 -0.0006562523512722674 0.0
0.000767124642533881 -0.0006777114610309283 0.0
0.000806101013898936 -0.000698521712796027 0.0
0.0008456968911717029 -0.0007187830282695995 0.0
0.0008855402943288425 -0.000738372238244826 0.0
0.0009260495061506419 -0.0007573958854861804 0.0
0.00096677371766848 -0.0007757522782361919 0.0
0.0010080103153711504 -0.0007935527247001896 0.0
0.0010495989048696335 -0.0008106758772043039 0.0
0.001091770827492172 -0.0008272670431653836 0.0
0.001134129487706954 -0.0008432180974284029 0.0
0.001177062719365675 -0.0008586119973425373 0.0
0.001220317981799753 -0.000873334436612155 0.0
0.0012639974173086503 -0.0008874726897048793 0.0
0.001307954220891722 -0.0009009658829789722 0.0
0.0013524415011647523 -0.0009138837088446867 0.0
0.0013970793746929484 -0.0009261120216100387 0.0
0.0014421159779784715 -0.0009377271143732241 0.0
0.001487411585486818 -0.0009486380351927785 0.0
0.0015330303753224208 -0.000958873995838807 0.0
0.001578897403716807 -0.0009685144113346157 0.0
0.0016249810080621976 -0.0009774031595958233 0.0
0.0016713614690622928 -0.0009856971656793678 0.0
0.001717968753749257 -0.0009932593597807432 0.0
0.0017647033932377703 -0.0010002088034563655 0.0
0.0018116615193662002 -0.0010063680132770048 0.0
0.001858606407095373 -0.0010118937448526115 0.0
0.0019057529010034014 -0.0010167414047218741 0.0
0.0019529151045578168 -0.0010208227130936668 0.0
0.0020001116277062903 -0.0010242802466705581 0.0
0.002047454254857663 -0.0010269668935891684 0.0
0.00209436949138286 -0.0010287815672337453 0.0
0.002141725663357741 -0.0010300055756286126 0.0
0.002187945422855389 -0.001030322708888534 0.0
0.002234719168134257 -0.0010299272781262026 0.0
0.0022793391175196945 -0.001028368472904465 0.0
0.002325609171561073 -0.0010261796689795934 0.0
0.002370221703682657 -0.001023034131698507 0.0
0.002414697003652166 -0.0010183530785978076 0.0
0.0024592475231841613 -0.0010127483193895829 0.0
0.002503962460244894 -0.0010054853726040895 0.0
0.002548694478391486 -0.0009972653606369088 0.0
0.0025937213552837757 -0.0009876710003178595 0.0
0.0026390471722180556 -0.0009771864792147882 0.0
0.0026844936768341287 -0.0009654701141075829 0.0
0.002730232133020625 -0.0009528857351929719 0.0
0.0027759658807232678 -0.0009396521548733796 0.0
0.0028214104177662616 -0.0009255904862227755 0.0
0.002866758340176503 -0.0009109560206710251 0.0
0.002912018807102555 -0.0008955930762588973 0.0
0.0029570937697841674 -0.0008795082611415116 0.0
0.0030017358809841833 -0.0008628690399567333 0.0
0.003046362630510546 -0.0008454975038744639 0.0
0.003090446466532559 -0.0008274949688625774 0.0
0.0031342072609708426 -0.0008089877331054621 0.0
0.0031778088806316187 -0.0007897180074621946 0.0
0.003220826777254308 -0.0007699362604121356 0.0
0.0032636030857149845 -0.0007495329559911999 0.0
0.0033059565622213663 -0.0007285082195982114 0.0
0.003348042342421698 -0.0007068641951170835 0.0
0.003389750049806599 -0.0006845111525951731 0.0
0.0034311197546868363 -0.0006614858900607148 0.0
0.0034719306025276717 -0.0006378735098623174 0.0
0.0035124870331613074 -0.0006136080145490542 0.0
0.003552754795389877 -0.0005886039592091856 0.0
0.0035925674537009727 -0.000562888599886431 0.0
0.0036321153181697804 -0.0005364928807967265 0.0
0.0036715082359795085 -0.0005092192716164168 0.0
0.0037104694391616863 -0.000481101316732851 0.0
0.0037490964721985133 -0.00045219073258901337 0.0
0.0037877169214027757 -0.00042231274216209604 0.0
0.0038262991343191617 -0.00039131341833957713 0.0
0.0038646227093872975 -0.0003591249685097557 0.0
0.003902789430856832 -0.0003256972983803464 0.0
0.003941126691137296 -0.0002907574326031569 0.0
0.003980098039545892 -0.00025390955086908437 0.0
0.0040191845994493524 -0.0002149046613315473 0.0
0.004058845379145095 -0.00017285061930418706 0.0
0.004100925804280077 -0.00012635661768195183 0.0
0.004144113274754115 -7.304762191346347e-5 0.0
0.004199999994657898 -3.435547345152182e-11 0.0
0.004199999988243396 -3.802055104121205e-11 0.0
0.004199999991575171 -2.6985794671230488e-11 0.0
0.0041999999915593 -2.3996589487982588e-11 0.0
0.004199999992102122 -2.050248812325904e-11 0.0
0.004199999992496078 -1.7829781751902686e-11 0.0
0.00419999999265243 -1.574344528041124e-11 0.0
0.004199999992931896 -1.3861421968957359e-11 0.0
0.004199999993024337 -1.2109307952591887e-11 0.0
0.004199999993189069 -1.0402652344034303e-11 0.0
0.0041999999935019 -9.020272045645091e-12 0.0
0.004199999993483056 -7.2155964039211184e-12 0.0
0.004199999993643641 -5.864981369080885e-12 0.0
0.004199999993746777 -4.293215625372577e-12 0.0
0.0041999999937790584 -2.7915540815425843e-12 0.0
0.0041999999937442495 -1.2082697709750994e-12 0.0
0.004199999993757978 3.428032214671592e-13 0.0
0.004199999993172289 2.0840619709550107e-12 0.0
0.0041999999935592855 3.485214308470263e-12 0.0
0.004199999992610626 5.262858202177769e-12 0.0
0.004199999992594932 6.4337668394190664e-12 0.0
0.004199999992241162 7.718991991440852e-12 0.0
0.004199999992529257 8.085751865447357e-12 0.0
0.0041999999923388355 1.1234888650487711e-11 0.0
0.0041999999959427235 5.118867090812191e-12 0.0
0.0038899783536935633 0.00022575372644155194 0.0
0.003619180688396436 0.0003283725988261394 0.0
0.0033727204083190522 0.0003660191741587587 0.0
0.003162412746384079 0.00036193439315705174 0.0
0.003020777691638583 0.00021597379141190086 0.0
0.002998987321134199 0.00014849588355787924 0.0
0.002951307902781965 0.00011982300106071892 0.0
0.0028948539868342946 0.00011043312788918766 0.0
0.0028292447961670293 0.00011232653143459774 0.0
0.002758471077017347 0.00011744483329972626 0.0
0.002683596840616955 0.00012339111031168788 0.0
0.0026058310849562893 0.0001310294317551393 0.0
0.002523627589298698 0.0001372696582370723 0.0
0.002436244570986147 0.0001413120393122335 0.0
0.0023394865640718734 0.0001429803605743408 0.0
0.0022235592945235826 0.00014277023536914802 0.0
0.0019164036717926373 0.00016644466867414028 0.0
0.0018107973958720973 0.00017884674157525476 0.0
0.001723849105748302 0.00018357053521323688 0.0
0.0016482587576666973 0.00018663914680908168 0.0
0.0015799572328837647 0.00018961609010892985 0.0
0.0015183484992801128 0.00019346858034936137 0.0
0.0014632192082040143 0.00019963671965954845 0.0
0.0014164289560713984 0.00021000010355605344 0.0
0.0013799944828703772 0.00022997534966965255 0.0
0.0013552636936438299 0.00026452638869028217 0.0
0.0013464103253867739 0.00032324724567282136 0.0
0.0013461968513960561 0.00041641306901184764 0.0
0.0011932797639430288 0.0005725133787948909 0.0
0.000964474228005635 0.0005370738678066459 0.0
0.0006711752354341809 0.00044168441314186503 0.0
0.00035516427769899584 0.00028869375705281407 0.0
0.001100442932408156 -0.000792230843978266 0.0
0.00299214322524683 -0.0008236829159403003 0.0
0.0014106502183113226 -0.0008942123126562466 0.0
0.002669482553713107 -0.0009302889394137835 0.0
0.001740304589032843 -0.0009614209300435177 0.0
0.002344654474800712 -0.0009815436284470582 0.0
0.002022789560257175 -0.000987947959884076 0.0
0.0032578574220278483 -0.0007167136086635043 0.0
0.000859872742146875 -0.0006949526710912725 0.0
0.003456639507586931 -0.0006112691061239395 0.0
0.0006646994274761128 -0.000591846478367103 0.0
6.881771706868995e-5 -1.3063146187634707e-5 0.0
0.004129624578986715 -1.2470154703726376e-5 0.0
0.002248610073655364 0.00016034275225297904 0.0
0.0025756516286137487 0.00015528576291223907 0.0
0.0018854620808545063 0.0001730820958308182 0.0
0.001594033750276165 0.00020463379624462784 0.0
0.003661265556215796 -0.000488448394669561 0.0
0.0004880812710902195 -0.0004787630248943142 0.0
4.744835607724481e-5 -2.3724714005921307e-5 0.0
0.004150877085322717 -2.1258712506729725e-5 0.0
0.004099309409998775 2.904856568998698e-6 0.0
9.256580837931197e-5 3.4318620226113484e-6 0.0
0.0038174727019525422 -0.00037267736870458257 0.0
0.00034270153877090663 -0.0003612638661068043 0.0
0.00280281035708253 0.00014213469827586495 0.0
0.001409180672329329 0.0002183914841869398 0.0
3.5398042707709265e-5 -2.5861287620184368e-5 0.0
0.004161005772198067 -2.4157663023368165e-5 0.0
0.001601022772305782 -0.0009365712173243627 0.0
0.0018799959786637017 -0.0009780940635447022 0.0
0.0025307279833466437 -0.0009592079406185754 0.0
0.0021684269046719222 -0.0009888232861456376 0.0
0.0028080832176703707 -0.0008897249016237782 0.0
0.0031174017409025534 -0.0007792968079149278 0.0
0.0012868300975261225 -0.0008588494130687722 0.0
0.0009805011104564193 -0.000750902429759946 0.0
0.003928137215402135 -0.0002800272174095513 0.0
0.00023849626900309678 -0.0002677182844092897 0.0
0.0040715844754945114 2.6014570727234043e-5 0.0
0.00011575725800979141 2.14537839039647e-5 0.0
0.00416742139751905 -2.7097981680797614e-5 0.0
3.27691815475155e-5 -3.156766590367133e-5 0.0
0.002939162285365304 0.0001407118674836404 0.0
0.001312538805984007 0.0002547560707736319 0.0
0.004020016631052904 4.86126397070306e-5 0.0
0.00016123014747141477 4.263716152851335e-5 0.0
5.7567684531622744e-5 -1.9804893020058362e-5 0.0
0.0041401985480420105 -1.831261122426248e-5 0.0
0.0024112461077746474 0.0001640185641876653 0.0
0.0017366566452382767 0.00019957748603040659 0.0
0.0001319329390990958 -0.00015479221135774422 0.0
0.004055037375016359 -0.00015841098609908956 0.0
0.0028964486848018583 -0.0008639620550092885 0.0
0.0022576269349167087 -0.0009891638329824325 0.0
0.001511539536006288 -0.0009174162405622597 0.0
0.0011914579704922117 -0.0008306004430661891 0.0
0.0024404658331980468 -0.0009715617051331924 0.0
0.003335667631885194 -0.0006786696306314303 0.0
0.0007814111311809634 -0.0006546505638852223 0.0
0.0035419717972015666 -0.0005642838311758795 0.0
0.0005860314163142063 -0.000542177032250449 0.0
0.0004112037513739499 -0.00041881097264561735 0.0
0.0037398499686171053 -0.00043187877207298764 0.0
0.0008034457016821171 0.00030488139307559216 0.0
0.0034856733864485215 0.00024100493200879288 0.0
0.004168338276437281 -3.164088379841834e-5 0.0
2.8532061625948028e-5 -3.2129070193711524e-5 0.0
0.0012633343722899522 0.0003519748718758065 0.0
0.0030497861465040898 0.0001906895118225074 0.0
0.00018351311651087764 6.833301860545505e-5 0.0
0.004015122853623319 6.517946345555294e-5 0.0
5.7543103016957745e-5 -6.947999685580273e-5 0.0
0.004135322156190472 -7.270030351882602e-5 0.0
0.0032603757391691485 0.00026728570914771773 0.0
0.0033351923017017494 0.00021436784081931053 0.0
0.0035955817044654604 0.00017140874455966667 0.0
0.003447844191721718 0.0001793485557212768 0.0
0.0032474947605388342 0.00019569339964692242 0.0
0.0033211690912466523 0.00018623440357613553 0.0
0.0035124825706297335 0.00016137990916896777 0.0
0.0033933124009704377 0.00017282453639077224 0.0
0.003573623986371016 0.00014342019032655988 0.0
0.003463646215816445 0.00015344812521343485 0.0
0.0032945415867387407 0.0001779847491992272 0.0
0.0033591287311323112 0.00015746872764196612 0.0
0.0032134353317246687 0.0001767614224134141 0.0
0.0032656690344540495 0.00015470541602937798 0.0
0.0031328268719728485 0.0001709484599260876 0.0
0.003179942637347651 0.00014500048281854746 0.0
0.00219466532063083 0.00010864871087456885 0.0
0.0020622237613146565 8.680617172973676e-5 0.0
0.002165989661164144 7.64787919264005e-5 0.0
0.0020585350409998036 6.07824418473818e-5 0.0
0.002149208758541112 5.1867547877364085e-5 0.0
0.0020567049892157097 3.979973786328492e-5 0.0
0.0021383809666590276 3.095425411440162e-5 0.0
0.0020547498388209995 2.0455737305368943e-5 0.0
0.0021304895205111253 1.200194721168677e-5 0.0
0.0020530417396075534 2.4904055150218794e-6 0.0
0.002124495394555383 -5.515383832789899e-6 0.0
0.0020517084915329265 -1.4369423245933192e-5 0.0
0.002119860222119058 -2.2511587295280843e-5 0.0
0.0020524855313109876 -3.076460818947839e-5 0.0
0.0021162317877497505 -3.8851557759762616e-5 0.0
0.0020515147495180452 -4.6842032822618595e-5 0.0
0.002112930150926713 -5.4793590973277824e-5 0.0
0.0020485245057758174 -6.261552367851494e-5 0.0
0.002109677007452098 -7.053163897452725e-5 0.0
0.00204708768890075 -7.815629436842836e-5 0.0
0.0021069546407389023 -8.617894371525902e-5 0.0
0.0020459210970933416 -9.367363711079614e-5 0.0
0.0021025514456540703 -0.00010171309384669877 0.0
0.0020444122463270835 -0.00010926878065527503 0.0
0.0020999224513665515 -0.00011737625463598304 0.0
0.002044008974023485 -0.00012459842381640568 0.0
0.002097662787079073 -0.00013314372788618504 0.0
0.0020398906441197913 -0.00013943691078381176 0.0
0.002094825438100153 -0.0001490189027904034 0.0
0.0020250495153458915 -0.00015552308231169107 0.0
0.0020957457528125003 -0.00016542863948897026 0.0
0.0020369344368041326 -0.00017300109078838142 0.0
0.0020931930860609593 -0.0001819163144733443 0.0
0.002037609316012849 -0.0001899404876258997 0.0
0.002091573639351148 -0.0001988967881333195 0.0
0.002039832035946775 -0.00020707225604205926 0.0
0.002089732824989781 -0.00021617392250328142 0.0
0.002039397515421967 -0.00022483315034488362 0.0
0.0019818285303791253 1.2652297130256806e-5 0.0
0.0020878642056311185 -0.00023395273612748758 0.0
0.0019856840628864635 -6.927147422280638e-5 0.0
0.0019728004576702665 -0.00016835248015979997 0.0
0.002034860152863762 -0.00024280176860936472 0.0
0.0020856083684923656 -0.0002522119926075459 0.0
0.002030412300605519 -0.0002619217486017083 0.0
0.0019804679725110505 -0.000250742041047607 0.0
0.001974711036430377 -0.0002708102449119846 0.0
0.002081303738521832 -0.0002720925895306336 0.0
0.002137163866824093 -0.0002616755477488083 0.0
0.0021466212015464844 -0.00017325281138359032 0.0
0.002133164499780091 -0.0002821430818256815 0.0
0.002192380195868926 -0.0002697513823296093 0.0
0.002186433199759345 -0.0002921174833729686 0.0
0.0019252813631367965 -0.0002590899818317529 0.0
0.00192153238563555 -0.0002787996651886575 0.0
0.002247418909186153 -0.00027861304024144536 0.0
0.0018689494961435663 -0.0002664230797623397 0.0
0.0018684323657433026 -0.00028713406655582187 0.0
0.0022424550765220122 -0.0003012620037356755 0.0
0.0023014648705108657 -0.00028878874475601104 0.0
0.0018122340779980883 -0.00027390125279847693 0.0
0.0018103926105155054 -0.00029526372104919445 0.0
0.0022977560680043055 -0.0003113203035237486 0.0
0.002358345007973413 -0.0002980835874778636 0.0
0.0017557512044609634 -0.00028138459426169647 0.0
0.001753393164502 -0.0003040612234039631 0.0
0.0023544752884589364 -0.0003218096238546832 0.0
0.0024165970059336662 -0.00030724426482215956 0.0
0.001699678123893072 -0.00028770307716506627 0.0
0.0016935685711501277 -0.0003111138087288722 0.0
0.0024134804220904216 -0.00033160686997798036 0.0
0.0024758512060782437 -0.00031619856449010474 0.0
0.0016380323445776366 -0.0002940431532835362 0.0
0.001633379806933727 -0.00031883991118107353 0.0
0.0015746676523577066 -0.00030190084726382547 0.0
0.001578982228249519 -0.0002756393283887343 0.0
0.0023455417270947057 -0.00034523458006630714 0.0
0.002472437660271454 -0.0003415470812306594 0.0
0.0025359638044290243 -0.00032500170590297393 0.0
0.002540407815908624 -0.0002990069653283152 0.0
0.002159694730999488 -9.464979085041182e-5 0.0
0.002602846501338286 -0.000307336449247144 0.0
0.0026078197094016814 -0.0002803874427462025 0.0
0.0026721516869430673 -0.00028785815241869734 0.0
0.0015749123480063925 -0.00032873890777078744 0.0
0.0015135931706106668 -0.00030893267669625224 0.0
0.001632497113334766 -0.0003455161881029132 0.0
0.002530719843119677 -0.00035170756088884143 0.0
0.0015145483695279429 -0.0003365208265432676 0.0
0.001452545859452552 -0.0003151957262070875 0.0
0.0021846131958225116 -2.939381784771339e-5 0.0
0.0014532429819363551 -0.00034225865360108516 0.0
0.0013913769252806225 -0.0003205835174840727 0.0
0.0013922290265464628 -0.0003483545336871918 0.0
0.0013312118796843407 -0.0003246540269413899 0.0
0.001329009349384815 -0.0002975759478539005 0.0
0.0012653204224178788 -0.000302413228492655 0.0
0.00126402451110228 -0.00027381133778993616 0.0
0.001324779356423588 -0.0003521789962118996 0.0
0.001195707695375432 -0.00027899217982653516 0.0
0.0011938846208968724 -0.0002497042748396378 0.0
0.0013935278174840623 -0.00037777245030687 0.0
0.0013361379341536022 -0.00038387921673265407 0.0
0.0011272163947558555 -0.00025260024712357677 0.0
0.0011231405486563288 -0.0002241005652065689 0.0
0.0026789589981250413 -0.00026060051339706677 0.0
0.0027457661062764717 -0.00026770713237989026 0.0
0.001394627487014898 -0.00040759688454477703 0.0
0.0013379012853892527 -0.00041354356618047685 0.0
0.0027533495820725217 -0.00023963416224397527 0.0
0.0028232709485407066 -0.00024697660593313075 0.0
0.002812814685318543 -0.0002777556182563179 0.0
0.0028907003268112217 -0.00025533860905713787 0.0
0.002881539776266984 -0.0002868724707730051 0.0
0.002959389687907224 -0.0002620146863396643 0.0
0.0029541625839968446 -0.00029332187540964785 0.0
0.003034469216851672 -0.00026523628383196777 0.0
0.003022526165039023 -0.0002972095693817489 0.0
0.003039710803266198 -0.00023524177398859806 0.0
0.00310399092468993 -0.00026961906906324435 0.0
0.0030878622275406073 -0.00030145041630344775 0.0
0.0013963188846596005 -0.00043800323849781635 0.0
0.0010529853842339582 -0.00022629705914591706 0.0
0.0010475957200922013 -0.00019741456162820968 0.0
0.0030131787334806096 -0.00033000782607477873 0.0
0.0030760662445487056 -0.00033375092007480737 0.0
0.0031495143637722757 -0.0003047546049385385 0.0
0.0030067028029018457 -0.0003635413973429724 0.0
0.0013408758974192095 -0.00044415546413812236 0.0
0.003137957851266949 -0.0003365703550427249 0.0
0.0032097000383090922 -0.0003067974605290629 0.0
0.0013978093755794654 -0.00046928906281498066 0.0
0.001343368308137273 -0.0004756643338713155 0.0