# vtk DataFile Version 2.0
phase field modeling fracture
ASCII
DATASET UNSTRUCTURED_GRID
POINTS 2538 float
0.0 0.0 0.0
10.0 0.0 0.0
0.0 10.0 0.0
10.0 10.0 0.0
0.0 4.9995 0.0
0.0 5.0005 0.0
5.0 5.0 0.0
0.9416964895726688 0.0 0.0
1.803581725054446 0.0 0.0
2.592419885431098 0.0 0.0
3.314401822861676 0.0 0.0
3.975193910351406 0.0 0.0
4.579982132660152 0.0 0.0
5.133512780936812 0.0 0.0
5.640130319506143 0.0 0.0
6.103810708661955 0.0 0.0
6.528192895506818 0.0 0.0
6.916607540127679 0.0 0.0
7.272102969376355 0.0 0.0
7.597469242948583 0.0 0.0
7.895259826292669 0.0 0.0
8.167811885738017 0.0 0.0
8.417264413845215 0.0 0.0
8.645575169389538 0.0 0.0
8.854535961159101 0.0 0.0
9.045786767735546 0.0 0.0
9.220828555767493 0.0 0.0
9.38103509633881 0.0 0.0
9.527663687265145 0.0 0.0
9.661865124984566 0.0 0.0
9.784692609918062 0.0 0.0
9.897110148790482 0.0 0.0
10.0 0.09999999999992584 0.0
10.0 0.199999999999856 0.0
10.0 0.2999999999997771 0.0
10.0 0.3999999999996677 0.0
10.0 0.4999999999995511 0.0
10.0 0.5999999999994683 0.0
10.0 0.6999999999993983 0.0
10.0 0.7999999999993286 0.0
10.0 0.8999999999992587 0.0
10.0 0.9999999999991888 0.0
10.0 1.099999999999119 0.0
10.0 1.199999999999033 0.0
10.0 1.299999999998852 0.0
10.0 1.399999999998576 0.0
10.0 1.499999999998284 0.0
10.0 1.599999999997992 0.0
10.0 1.6999999999977 0.0
10.0 1.799999999997408 0.0
10.0 1.899999999997116 0.0
10.0 1.999999999996825 0.0
10.0 2.099999999996533 0.0
10.0 2.199999999996241 0.0
10.0 2.299999999995949 0.0
10.0 2.399999999995657 0.0
10.0 2.499999999995365 0.0
10.0 2.599999999995073 0.0
10.0 2.699999999994782 0.0
10.0 2.79999999999449 0.0
10.0 2.899999999994198 0.0
10.0 2.999999999993906 0.0
10.0 3.099999999993614 0.0
10.0 3.199999999993322 0.0
10.0 3.299999999993029 0.0
10.0 3.399999999992738 0.0
10.0 3.499999999992446 0.0
10.0 3.599999999992154 0.0
10.0 3.699999999991863 0.0
10.0 3.799999999991571 0.0
10.0 3.899999999991278 0.0
10.0 3.999999999991022 0.0
10.0 4.099999999991035 0.0
10.0 4.199999999991187 0.0
10.0 4.299999999991338 0.0
10.0 4.399999999991491 0.0
10.0 4.499999999991642 0.0
10.0 4.599999999991795 0.0
10.0 4.699999999991947 0.0
10.0 4.799999999992099 0.0
10.0 4.89999999999225 0.0
10.0 4.999999999992403 0.0
10.0 5.099999999992555 0.0
10.0 5.199999999992706 0.0
10.0 5.299999999992858 0.0
10.0 5.39999999999301 0.0
10.0 5.499999999993161 0.0
10.0 5.599999999993313 0.0
10.0 5.699999999993466 0.0
10.0 5.799999999993618 0.0
10.0 5.899999999993771 0.0
10.0 5.999999999993922 0.0
10.0 6.099999999994074 0.0
10.0 6.199999999994227 0.0
10.0 6.299999999994378 0.0
10.0 6.39999999999453 0.0
10.0 6.499999999994682 0.0
10.0 6.599999999994833 0.0
10.0 6.699999999994986 0.0
10.0 6.799999999995138 0.0
10.0 6.899999999995289 0.0
10.0 6.999999999995442 0.0
10.0 7.099999999995594 0.0
10.0 7.199999999995747 0.0
10.0 7.299999999995897 0.0
10.0 7.39999999999605 0.0
10.0 7.499999999996202 0.0
10.0 7.599999999996353 0.0
10.0 7.699999999996505 0.0
10.0 7.799999999996658 0.0
10.0 7.899999999996808 0.0
10.0 7.999999999996962 0.0
10.0 8.099999999997113 0.0
10.0 8.199999999997265 0.0
10.0 8.299999999997418 0.0
10.0 8.399999999997569 0.0
10.0 8.499999999997721 0.0
10.0 8.599999999997873 0.0
10.0 8.699999999998024 0.0
10.0 8.799999999998176 0.0
10.0 8.899999999998329 0.0
10.0 8.99999999999848 0.0
10.0 9.099999999998634 0.0
10.0 9.199999999998786 0.0
10.0 9.299999999998937 0.0
10.0 9.399999999999089 0.0
10.0 9.499999999999241 0.0
10.0 9.599999999999392 0.0
10.0 9.699999999999545 0.0
10.0 9.799999999999697 0.0
10.0 9.899999999999848 0.0
9.897110148790565 10.0 0.0
9.784692609918244 10.0 0.0
9.66186512498486 10.0 0.0
9.527663687265571 10.0 0.0
9.381035096339392 10.0 0.0
9.220828555768257 10.0 0.0
9.045786767736512 10.0 0.0
8.854535961160305 10.0 0.0
8.645575169391027 10.0 0.0
8.417264413847017 10.0 0.0
8.167811885740178 10.0 0.0
7.895259826295246 10.0 0.0
7.597469242951631 10.0 0.0
7.272102969379938 10.0 0.0
6.916607540131873 10.0 0.0
6.528192895511704 10.0 0.0
6.103810708667616 10.0 0.0
5.640130319512691 10.0 0.0
5.13351278094435 10.0 0.0
4.579982132668816 10.0 0.0
3.975193910361222 10.0 0.0
3.314401822869852 10.0 0.0
2.592419885437257 10.0 0.0
1.803581725058137 10.0 0.0
0.9416964895740705 10.0 0.0
0.0 9.00010000000243 0.0
0.0 8.000200000005481 0.0
0.0 7.000300000005135 0.0
0.0 6.000400000002569 0.0
0.901790731451151 5.000409820926855 0.0
1.657200899774397 5.000334279910023 0.0
2.289991063707192 5.000271000893629 0.0
2.820065163538221 5.000217993483646 0.0
3.264096435579811 5.000173590356442 0.0
3.636051481595835 5.00013639485184 0.0
3.947629914072366 5.000105237008593 0.0
4.208632181002628 5.0000791367819 0.0
4.427267949625672 5.000057273205037 0.0
4.610414277633563 5.000038958572237 0.0
4.763831845154243 5.000023616815485 0.0
4.892346298799659 5.00001076537012 0.0
4.892346298799748 4.99998923462988 0.0
4.763831845154455 4.999976383184515 0.0
4.610414277633943 4.999961041427763 0.0
4.427267949626277 4.999942726794963 0.0
4.208632181003523 4.9999208632181 0.0
3.94762991407365 4.999894762991407 0.0
3.636051481597624 4.99986360514816 0.0
3.264096435582253 4.999826409643559 0.0
2.820065163541503 4.999782006516354 0.0
2.289991063711534 4.999728999106371 0.0
1.657200899778495 4.999665720089978 0.0
0.9017907314530094 4.999590179073145 0.0
0.0 3.999600000002013 0.0
0.0 2.999700000005187 0.0
0.0 1.99980000000512 0.0
0.0 0.9999000000025537 0.0
9.897889398521345 2.93573355845387 0.0
9.906568249974548 7.060009441434234 0.0
9.913122631074113 3.64016132281653 0.0
9.922462129543863 6.354535290629151 0.0
9.917693659967533 4.354211663134567 0.0
9.909873057440208 5.637584487339942 0.0
9.914183254994697 4.950672966925282 0.0
9.913885043715895 7.666887930262611 0.0
9.91009668007573 2.351889069770817 0.0
9.905135696074536 8.138152454502785 0.0
9.913397459621809 1.849999999997262 0.0
7.099302372137626 0.297750452375005 0.0
7.095143729410097 9.700359990366296 0.0
4.942912558701401 5.095838627899509 0.0
4.315009232304429 5.165022115481685 0.0
4.946182472483878 4.906763777264103 0.0
4.317967462990024 4.825955043772673 0.0
9.916390871492647 8.64999999999792 0.0
9.921504649680616 1.368376469890358 0.0
8.292538149791614 0.206877570318844 0.0
8.292538149793597 9.793122429681448 0.0
5.884594439766573 9.587645267048616 0.0
5.794826292691579 0.3794853783929359 0.0
9.913397459621425 9.049999999998557 0.0
9.908526577714177 0.9568239351922434 0.0
3.456851160380649 5.315740054130451 0.0
3.457889657868442 4.707121019609468 0.0
8.945214200703926 0.1503383337970344 0.0
8.950161364448409 9.8413906539257 0.0
9.913862335499305 4.055887885208452 0.0
9.916697353372683 4.650158482607802 0.0
9.919076340414442 6.049999999994006 0.0
9.906994308667635 5.25749687748192 0.0
9.917490342358025 6.655979201891897 0.0
9.915757520293784 7.343848891656911 0.0
9.910049507471042 3.363474386285078 0.0
9.914471988502868 2.647400064832979 0.0
9.91474124160965 9.337490423485129 0.0
9.916971008170838 0.6499999999994355 0.0
4.307157269264427 9.509674045029644 0.0
4.331527375865619 0.4401616696422582 0.0
9.45434939180249 9.878397030523757 0.0
9.457696120412969 0.1270877537061785 0.0
2.555070293622606 5.422044496190925 0.0
2.566232917480916 4.608001224030952 0.0
3.026511860837692 9.332320638257093 0.0
2.945561971800619 0.5895662714727601 0.0
7.7395404387124 0.2511088946967771 0.0
7.736379255744154 9.745848826372828 0.0
4.687135269408529 5.122111433928926 0.0
4.688420821504113 4.871895064967488 0.0
9.910554884115975 0.3448356354522978 0.0
9.911230082250466 9.65764729394159 0.0
9.921953841410854 6.851023993342036 0.0
9.912065178606017 5.448170483544033 0.0
9.911660025326261 3.861846960030188 0.0
9.914847467973438 3.14501593945607 0.0
9.913397459621425 5.849999999993703 0.0
9.913397459621425 7.849999999996735 0.0
9.906916878988277 2.15455769998631 0.0
9.913397459621425 8.349999999997479 0.0
9.909472363117661 1.640528221515488 0.0
9.913987325695956 1.152857110636247 0.0
9.913397459621425 8.849999999998241 0.0
0.9100099990995943 2.614215977520411 0.0
0.8395284981715456 7.451196254860987 0.0
9.723278867451556 9.898135916635193 0.0
9.723316350887044 0.09841820909386662 0.0
1.385819164827588 4.454539963646463 0.0
1.338343629665047 5.523111536005823 0.0
1.377179700550677 0.6809168304959698 0.0
1.418060461092743 9.285896715136046 0.0
9.91268220142518 0.1457914080939694 0.0
9.906737126737994 9.845745933882352 0.0
0.7108351382691361 6.537941170074089 0.0
1.527735020267026 6.915620208855231 0.0
1.630993885659103 7.838271825205868 0.0
2.232760943566823 7.370850737296832 0.0
2.243414218068206 6.688299277952821 0.0
2.779655053105118 7.021588754814074 0.0
2.80227799359795 7.632420170547022 0.0
3.282022065908813 7.305859666021318 0.0
3.327597298795347 7.857554136825748 0.0
3.743210251018715 7.549183328204379 0.0
3.716353232200752 7.062036086888612 0.0
4.111978858674101 7.27497101169417 0.0
4.104192177581432 6.879858986267289 0.0
4.436230765617037 7.045693351607117 0.0
4.430360014817357 6.703971783962796 0.0
4.732390145036301 6.849841042423394 0.0
5.056161327708878 5.095276573498806 0.0
5.111586796021131 4.999081142133581 0.0
5.169267363407189 5.09444870412406 0.0
5.223795108752053 4.996986220359468 0.0
5.281480803887719 5.092780870372803 0.0
5.335670761900611 4.994887492556936 0.0
5.393485214772442 5.090486192743301 0.0
5.447323082877892 4.992601527033996 0.0
5.505243219343024 5.087953380710069 0.0
5.558739102026105 4.990287787962959 0.0
5.616491581184779 5.085335255235766 0.0
5.669852346908056 4.9879269227514 0.0
5.727502713908907 5.082679981817038 0.0
5.780766004135139 4.988313988715834 0.0
5.838244881129535 5.080480568766611 0.0
5.891357695677371 4.986433849408193 0.0
5.948696036767613 5.077969900389505 0.0
6.001601341641615 4.981313698556656 0.0
6.058851024265095 5.074871552128682 0.0
6.111614020704875 4.978360695880202 0.0
6.168801161530775 5.072044953270978 0.0
6.221368818778567 4.975825765213497 0.0
6.278268309066882 5.066182320461055 0.0
6.330814273567539 4.972837984645718 0.0
6.387565032421376 5.062889771971895 0.0
6.437476667631405 4.971693683589553 0.0
[...]
POINT_DATA 2538
VECTORS disp float
1.9979434376958857e-11 5.2450149354973954e-11 0.0
4.2791012285377445e-11 -1.1713183924916502e-10 0.0
0.004799999982555639 4.732365988782902e-11 0.0
0.004799999956595436 -1.2002669820624595e-10 0.0
0.0015077519011605452 0.0006345051021308258 0.0
0.003456227848307853 0.000438584972774205 0.0
0.0023659004334165537 0.00015602903118445237 0.0
5.849026990630819e-12 6.213590296921679e-12 0.0
1.040420581847607e-11 1.3125940340909279e-11 0.0
9.732102742708168e-12 8.403522089777211e-12 0.0
9.712883890487701e-12 7.84229429950712e-12 0.0
9.282680424211902e-12 5.999910576721513e-12 0.0
8.799811374385705e-12 4.463317479286379e-12 0.0
8.357195133845245e-12 2.758734515397995e-12 0.0
7.995594478965865e-12 9.395716105411494e-13 0.0
7.115874323564118e-12 -1.0737086096973492e-12 0.0
7.441988628477995e-12 -2.848196348430998e-12 0.0
7.09174687697208e-12 -4.852104792400341e-12 0.0
7.011015602948607e-12 -6.974268762779858e-12 0.0
7.1222677139291544e-12 -9.081198002077787e-12 0.0
6.984694909194944e-12 -1.1103583884580707e-11 0.0
7.284162636240983e-12 -1.3511722202035836e-11 0.0
7.2302220333499135e-12 -1.559317965385419e-11 0.0
7.575702919769604e-12 -1.7987634373478065e-11 0.0
7.641760620221563e-12 -2.0736543345763123e-11 0.0
7.9202541894922e-12 -2.330123916543014e-11 0.0
8.205128314053337e-12 -2.6331732355558157e-11 0.0
8.588697238309307e-12 -2.9692781056993306e-11 0.0
9.348429040802566e-12 -3.36644098063932e-11 0.0
9.316474402689762e-12 -3.787129404146345e-11 0.0
1.2524331332490703e-11 -4.715219391095689e-11 0.0
5.2248151958753035e-12 -4.342586867285928e-11 0.0
5.88204224327353e-5 -8.072118892007886e-5 0.0
0.00010133644709059186 -0.0001397987306743137 0.0
0.00014256208439961736 -0.00019148480682799662 0.0
0.00018209158520696348 -0.0002385991112534877 0.0
0.0002204646924396007 -0.0002824813260634955 0.0
0.00025848756606141 -0.00032416314351073284 0.0
0.00029678015591200744 -0.0003638292720704519 0.0
0.00033497584875020873 -0.0004017736637400868 0.0
0.0003734021819956236 -0.000438313896018576 0.0
0.00041214142964140913 -0.0004734637911059497 0.0
0.000451219578282533 -0.0005075027286221095 0.0
0.000490909525081318 -0.0005404567427053504 0.0
0.0005309077444625403 -0.0005723193543902742 0.0
0.0005714223228958119 -0.0006033178929690962 0.0
0.000612679902903155 -0.0006334214830134569 0.0
0.0006542293590896904 -0.0006625774579002443 0.0
0.0006963547516703485 -0.0006909479310979003 0.0
0.0007390356979791611 -0.000718412134456083 0.0
0.0007822448686246075 -0.0007451128856555514 0.0
0.000826001850605773 -0.000771050762581172 0.0
0.000870358446985003 -0.0007962299082807768 0.0
0.0009152007574093622 -0.0008206246832066838 0.0
0.0009607879734140569 -0.0008443639622175296 0.0
0.001006706050274642 -0.0008672879504130462 0.0
0.0010534167905064064 -0.0008895341179216919 0.0
0.0011004202580385941 -0.000910976059556121 0.0
0.0011480377574465868 -0.0009317469715699608 0.0
0.00119610120748202 -0.0009516987731608924 0.0
0.0012448596738484498 -0.0009710138351912596 0.0
0.001293882165496202 -0.0009895473073008967 0.0
0.0013435829297176345 -0.001007407724279082 0.0
0.0013936877413183973 -0.0010244605870248522 0.0
0.001444306053413609 -0.0010407990905943632 0.0
0.0014952821794316851 -0.001056358209035552 0.0
0.0015468886337673567 -0.0010712249315275246 0.0
0.0015987098607418474 -0.0010852593090189618 0.0
0.001651004675690971 -0.001098548608417722 0.0
0.001703638889572676 -0.0011110042073769475 0.0
0.0017566664481830673 -0.0011226606165736061 0.0
0.0018100003086513146 -0.0011335801815181533 0.0
0.0018636085821247723 -0.0011436152751181663 0.0
0.0019175529574194565 -0.0011529186428014483 0.0
0.0019717673973603505 -0.0011613505853111659 0.0
0.002026141700081866 -0.001169024982217739 0.0
0.002080767955327495 -0.0011757652309073738 0.0
0.002135403479863496 -0.0011817296131249567 0.0
0.0021902484421270126 -0.0011868706785615039 0.0
0.002245119947757335 -0.0011910887805695871 0.0
0.002300008426563209 -0.0011945355011010294 0.0
0.0023550359469356654 -0.0011970531299892767 0.0
0.002409533169348344 -0.0011985018017201291 0.0
0.002464525465362243 -0.0011992482153699725 0.0
0.002517877254121965 -0.0011986902206679898 0.0
0.0025721182778890993 -0.0011972046834950805 0.0
0.002624003851565323 -0.0011943930394693525 0.0
0.002677611611760406 -0.0011905573741790496 0.0
0.002729783194140601 -0.0011853203951779933 0.0
0.0027822421915312642 -0.00117821344119219 0.0
0.002835028045990479 -0.001169911313095858 0.0
0.002888308664412754 -0.0011599961291259195 0.0
0.0029416497997039673 -0.0011491477439882082 0.0
0.0029951900825620436 -0.0011371190484596265 0.0
0.0030487286809889346 -0.0011242790674573916 0.0
0.0031021787537971173 -0.001110368607275298 0.0
0.0031555528173530427 -0.001095579613447371 0.0
0.0032086992882465882 -0.0010801940346281318 0.0
0.003261359724919041 -0.001063934789876694 0.0
0.003313665696989508 -0.0010470282207703456 0.0
0.0033656977681683505 -0.0010293183698051422 0.0
0.0034173761925003873 -0.00101080071244988 0.0
0.003468465451540584 -0.0009916588510205282 0.0
0.003519396147014096 -0.0009717049364075236 0.0
0.0035696291394923855 -0.0009510192599616844 0.0
0.0036194038348647175 -0.0009297133615158046 0.0
0.0036688857846495604 -0.0009075397754697397 0.0
0.0037176366944781233 -0.000884760076159194 0.0
0.0037660346095572425 -0.0008612525079823546 0.0
0.0038138771528256695 -0.0008370117088220887 0.0
0.003861309838997335 -0.0008120484993635097 0.0
0.003908235586220595 -0.0007862503886730927 0.0
0.003954716272561314 -0.000759663493090205 0.0
0.004000491155770633 -0.0007324045620825455 0.0
0.004045897357445181 -0.000704370710638436 0.0
0.004090885367362511 -0.0006754864478119934 0.0
0.004135286980418527 -0.000645768159338123 0.0
0.0041792902356399386 -0.0006152477558972508 0.0
0.0042230040403335375 -0.0005837218022152758 0.0
0.004266135612432171 -0.0005512243031767619 0.0
0.0043087972555247295 -0.0005178062590347888 0.0
0.004351335713742283 -0.00048328305513958267 0.0
0.004393707056836689 -0.0004474901525689377 0.0
0.004435669057592688 -0.0004103465817829596 0.0
0.004477326059193674 -0.00037178540600685516 0.0
0.0045190522030442055 -0.0003315335629026365 0.0
0.0045613499468301535 -0.00028915957090117517 0.0
0.004603646651258573 -0.0002443864055022746 0.0
0.004646459326956698 -0.00019621750321878361 0.0
0.00469189842284358 -0.00014319114500140997 0.0
0.004738579646619632 -8.258805570699825e-5 0.0
0.004799999994224785 -4.135868787868785e-11 0.0
0.004799999986775865 -4.578517365476771e-11 0.0
0.00479999999035414 -3.3845417905524306e-11 0.0
0.004799999990252928 -3.040303701724707e-11 0.0
0.004799999990810378 -2.6331852395518957e-11 0.0
0.004799999991253346 -2.3072779315078778e-11 0.0
0.004799999991408705 -2.044223881615388e-11 0.0
0.004799999991714784 -1.806355988520206e-11 0.0
0.004799999991784488 -1.5815194216236962e-11 0.0
0.004799999991910764 -1.361719440179228e-11 0.0
0.004799999992280431 -1.1837658947604907e-11 0.0
0.004799999992127128 -9.493357473436481e-12 0.0
0.004799999992289602 -7.746604262742973e-12 0.0
0.004799999992340334 -5.723778675790787e-12 0.0
0.004799999992318674 -3.794426038168808e-12 0.0
0.0047999999922221925 -1.791267351480789e-12 0.0
0.00479999999219449 1.4254917784422548e-13 0.0
0.004799999991468996 2.276541096762101e-12 0.0
0.004799999991905757 3.96173218915763e-12 0.0
0.004799999990778133 6.0598743772916585e-12 0.0
0.004799999990758551 7.423481023917877e-12 0.0
0.0047999999903358395 8.902850107363992e-12 0.0
0.004799999990711584 9.368483932272433e-12 0.0
0.004799999990404059 1.3287592096801381e-11 0.0
0.004799999994808838 6.617072056462981e-12 0.0
0.0044504832869455115 0.00027856066728157837 0.0
0.004141086163061679 0.0004059622065197003 0.0
0.0038558151368077707 0.0004579109737167539 0.0
0.003613804432005684 0.0004579849403322949 0.0
0.003447175270840144 0.00029135273081493606 0.0
0.003422388050372026 0.00021287824372106742 0.0
0.003373273310338093 0.00017530657690812491 0.0
0.0033139885038673163 0.00015844320517278675 0.0
0.003243475566982784 0.00015565420808498481 0.0
0.0031656365872189 0.000158262829368676 0.0
0.0030818965162789113 0.00016281798201778263 0.0
0.0029938383844079286 0.00016985425213932463 0.0
0.002899845369682562 0.00017567283155494787 0.0
0.002799113664255181 0.0001792685453788954 0.0
0.0026869436701392247 0.0001803567333200832 0.0
0.002551583959074862 0.0001805199247253698 0.0
0.002184669775850055 0.00019920326049235721 0.0
0.0020573718047479064 0.00021085689834219877 0.0
0.0019524675204709587 0.00021387133617142696 0.0
0.0018611060644657007 0.00021518293805419282 0.0
0.0017784058317693344 0.0002165002360058799 0.0
0.0017036766117203314 0.00021885329665175514 0.0
0.0016367837223225238 0.00022384129740625906 0.0
0.0015799710684937238 0.00023370375427671965 0.0
0.0015356757812025 0.00025476795546463393 0.0
0.0015057295782041737 0.00029282386877852004 0.0
0.0014943962545223902 0.0003583108723775941 0.0
0.001497112467090567 0.0004680769137593729 0.0
0.0013180985830646265 0.0006389014823191216 0.0
0.0010559326417990083 0.0005953706843298088 0.0
0.0007322037172079328 0.0004933925971301393 0.0
0.0003859928610435957 0.00032432361822615647 0.0
0.0012554956815922658 -0.0009297512382812565 0.0
0.003456652235194142 -0.0009488922963348517 0.0
0.001614984184277377 -0.0010474421795551659 0.0
0.0030840093968328816 -0.0010717491941494425 0.0
0.0019981473183107155 -0.0011234022546268406 0.0
0.0027006359015354 -0.001137264983886241 0.0
0.002326703746977823 -0.0011513711030976701 0.0
0.0037588302778051056 -0.0008256474600987942 0.0
0.000977573214720545 -0.0008165114665925889 0.0
0.003982673819356932 -0.0007042965925759448 0.0
0.0007530544382227331 -0.0006957736056372216 0.0
7.783501743848741e-5 -1.547848458216497e-5 0.0
0.00472105967921673 -1.5213367824892067e-5 0.0
0.002583394044496741 0.0001998349077136593 0.0
0.0029613536697585922 0.00019558635227054185 0.0
0.002150494261184856 0.00020907187596009687 0.0
0.0017985825333140706 0.00023525347717716176 0.0
0.004211207204090465 -0.000562198092062334 0.0
0.0005508453548814101 -0.000562850140691776 0.0
5.274165613454974e-5 -2.8210362490017216e-5 0.0
0.0047458398227375855 -2.6412105285297157e-5 0.0
0.0046861400482890595 3.393873637297436e-6 0.0
0.00010530434630462825 4.084486025958815e-6 0.0
0.004383734073612129 -0.00042866100102960874 0.0
0.0003854141666239088 -0.00042462338793295925 0.0
0.0032205432657917967 0.0001847158699428113 0.0
0.0015771139375080618 0.00024379659636531128 0.0
3.890946887516327e-5 -3.0962389150988966e-5 0.0
0.004757332423025487 -3.0132562613666886e-5 0.0
0.0018361849807813377 -0.0010955452620798097 0.0
0.002160624256510553 -0.0011415079948276466 0.0
0.0029203638969226274 -0.0011068500158137127 0.0
0.002495996758696021 -0.0011501442597907322 0.0
0.003245199592348783 -0.0010246842619261007 0.0
0.0035995701001624914 -0.000897638511012838 0.0
0.0014713314378415662 -0.0010068451394521392 0.0
0.0011167418429841123 -0.0008817945515319848 0.0
0.0045048090979499696 -0.0003218475960441441 0.0
0.00026754968263665836 -0.0003143378976677251 0.0
0.004654885334739943 3.0227232234667756e-5 0.0
0.00013092611010613887 2.572620774890136e-5 0.0
0.004764334115077804 -3.3377247711979586e-5 0.0
3.5870776587507476e-5 -3.773209385391818e-5 0.0
0.0033719203965903418 0.00019194857593172427 0.0
0.0014615617427674295 0.0002823454273456112 0.0
0.0045972971381703686 5.6193896747656975e-5 0.0
0.00018042012423162242 5.038448403327987e-5 0.0
6.455261431190255e-5 -2.3423149302044658e-5 0.0
0.004733500619481848 -2.2575209275798215e-5 0.0
0.0027713876577898605 0.00020414850309865686 0.0
0.0019706794511774235 0.00023436393832642005 0.0
0.0001477279933172352 -0.00018155921029988767 0.0
0.004642476348723345 -0.00018220190683218776 0.0
0.0033471188610778983 -0.0009948651978988602 0.0
0.002599325955429467 -0.0011482989835723228 0.0
0.0017321721660013393 -0.001073842989281053 0.0
0.001360768482605058 -0.0009743147584364905 0.0
0.002813414607306394 -0.001123216527256636 0.0
0.003846701117946501 -0.0007818199790895338 0.0
0.0008872201765744345 -0.0007693836307881446 0.0
0.004078285446056464 -0.000649842623769511 0.0
0.0006628780317042778 -0.000637476537008603 0.0
0.0004632453830815231 -0.0004923418413936973 0.0
0.004298217224693291 -0.0004969723291563593 0.0
0.0008846467567567587 0.0003497244900153557 0.0
0.003991139949458696 0.0003001388322039763 0.0
0.004765405726636565 -3.788724371311651e-5 0.0
3.136384493183001e-5 -3.8131570555843346e-5 0.0
0.0013958427792711287 0.0003916812260933717 0.0
0.0034875532078713933 0.00026031141404591414 0.0
0.00020286822189017736 8.193894291907496e-5 0.0
0.004592604221688055 7.901963047934774e-5 0.0
6.437092340251836e-5 -8.142515027871103e-5 0.0
0.004729356349218301 -8.402064428946054e-5 0.0
0.003731259577351462 0.00034379144746819995 0.0
0.0038235162197529232 0.00026590018299156625 0.0
0.004116734240073165 0.00020814465983115717 0.0
0.003951514847277974 0.00021517701471656801 0.0
0.003727094580149358 0.00023979537639493665 0.0
0.003810195136108532 0.00022182666212762516 0.0
0.004024842813620016 0.0001897465154053199 0.0
0.0038910119927114996 0.00020262329932937013 0.0
0.004093603359301731 0.00016689878853801045 0.0
0.003969508909427138 0.000178791932887789 0.0
0.0037795565775364825 0.0002085566181872742 0.0
0.003851222795640749 0.00018397805189958926 0.0
0.003687301261030154 0.00020732116259565526 0.0
0.003744974348074392 0.00018124786032711033 0.0
0.0035951973925953196 0.0002008502697162004 0.0
0.0036470819836074823 0.0001702692826806256 0.0
0.0025205207171462942 0.00013523771933174623 0.0
0.0023624422587046907 0.00010884160788732613 0.0
0.0024869870112884528 9.679646785912609e-5 0.0
0.0023589683726155976 7.779769019176915e-5 0.0
0.0024673363092582025 6.73874242552576e-5 0.0
0.002357413413413711 5.288518842996246e-5 0.0
0.0024546452954988195 4.251918234087669e-5 0.0
0.002355548411993692 2.9995788876521053e-5 0.0
0.0024454013238398246 2.0093877678063953e-5 0.0
0.0023538859448650556 8.842881792629865e-6 0.0
0.002438387183794591 -5.151431652588773e-7 0.0
0.002352624642140562 -1.0900384553983858e-5 0.0
0.002432993974595091 -2.0411118195788692e-5 0.0
0.00235381771648652 -3.0025284645203683e-5 0.0
0.0024287914516533523 -3.9456422014718e-5 0.0
0.002352917662035721 -4.8720127486321265e-5 0.0
0.0024249893487572325 -5.797772299928208e-5 0.0
0.002349650505932855 -6.700376604643868e-5 0.0
0.002421268614239342 -7.62010383381874e-5 0.0
0.00234820332762574 -8.496443442244319e-5 0.0
0.0024181897132369568 -9.427271438822229e-5 0.0
0.002347075786866012 -0.0001028632869061714 0.0
0.002413173228323915 -0.0001121780138852547 0.0
0.002345557817300213 -0.00012082583083414043 0.0
0.0024102552348046406 -0.00013021478443538646 0.0
0.0023453355051165467 -0.0001384682201281257 0.0
0.002407784191861721 -0.00014835363486804138 0.0
0.0023407893667055945 -0.00015552983970659908 0.0
0.0024046684236528285 -0.0001666043357816495 0.0
0.0023238484377109143 -0.00017400531371553548 0.0
0.0024059364592146763 -0.0001854631671602141 0.0
0.0023379288024820625 -0.00019410139985206454 0.0
0.0024031913431110273 -0.0002044082427050385 0.0
0.00233900009488699 -0.00021358241472012226 0.0
0.002401548254910292 -0.0002239310826967838 0.0
0.0023418706877950555 -0.00023329058704203216 0.0
0.002399666097697837 -0.00024380123302566247 0.0
0.0023416759462044335 -0.00025373140175393295 0.0
0.0022693670576053866 2.0728797325156605e-5 0.0
0.002397771877908292 -0.00026426352252047636 0.0
0.0022762315057159085 -7.463311718924326e-5 0.0
0.0022635289124326207 -0.00018868254586232875 0.0
0.002336755106003421 -0.0002744296215847797 0.0
0.002395450035416686 -0.0002853024534906035 0.0
0.002331964514755729 -0.0002964805158091022 0.0
0.002274137395688077 -0.00028356227257353195 0.0
0.002267895073650387 -0.00030673145058730296 0.0
0.0023908004875764256 -0.0003082358750123878 0.0
0.0024550027220571124 -0.00029623825557173396 0.0
0.0024648974799185218 -0.00019449612872334535 0.0
0.00245068241081099 -0.0003198570283700898 0.0
0.002518673888919371 -0.0003055807376742432 0.0
0.002512111144128498 -0.00033139567761775586 0.0
0.0022106307160453076 -0.00029318319495299686 0.0
0.0022067289342588598 -0.0003159704403160112 0.0
0.002582069570324191 -0.0003158347859831937 0.0
0.002145798645318296 -0.0003016594448532247 0.0
0.0021456681635998705 -0.0003256413289403225 0.0
0.0025766193024532647 -0.0003419852356087103 0.0
0.0026442545696848847 -0.00032761599959396377 0.0
0.0020805454197275527 -0.0003103379423029666 0.0
0.0020789151921311077 -0.0003351184124460655 0.0
0.0026402323780131097 -0.0003536479483881878 0.0
0.0027096012786210675 -0.00033840285616548407 0.0
0.0020155737000607968 -0.0003190669607888407 0.0
0.0020133806119078373 -0.0003454210019454684 0.0
0.0027054022953211776 -0.0003658340484693057 0.0
0.0027764376159604147 -0.0003490633217884289 0.0
0.0019510579158516699 -0.0003264898127284702 0.0
0.0019445465354400511 -0.0003537566161305187 0.0
0.0027731122847709368 -0.00037725484155317376 0.0
0.0028443432797807533 -0.0003595236568629816 0.0
0.0018801202649332723 -0.0003339995551478058 0.0
0.0018752909765468164 -0.00036295183391564593 0.0
0.0018072275775598725 -0.0003433644095442048 0.0
0.0018115901024960055 -0.00031270295950653124 0.0
0.0026954313706246463 -0.0003929579711589342 0.0
0.002840701292310781 -0.00038887996699631425 0.0
0.0029131643752290767 -0.0003698506862362373 0.0
0.002918002962900263 -0.00033977892194157354 0.0
0.0024796660669003353 -0.00010407373190821846 0.0
0.0029893874001228962 -0.00034958517748614755 0.0
0.002994848720876161 -0.00031844322284315025 0.0
0.0030682823707465583 -0.0003272917446013641 0.0
0.0018080427563590355 -0.000374766633107861 0.0
0.001736942708445903 -0.0003518471400734377 0.0
0.0018747680863250506 -0.0003941595068799596 0.0
0.0029074697545721684 -0.00040080668360607786 0.0
0.001738536086816845 -0.00038420338048425023 0.0
0.0016666547627700729 -0.0003595158494732723 0.0
0.0025089494054430133 -2.8448032505932715e-5 0.0
0.0016678766017673458 -0.000391335221871067 0.0
0.0015961857237612401 -0.0003662456890104904 0.0
0.0015975245803988745 -0.00039897782869974756 0.0
0.0015268251510845423 -0.0003715023150209375 0.0
0.0015239091432156977 -0.0003396037103752189 0.0
0.001450543585144066 -0.0003458026334634916 0.0
0.0014486292258019207 -0.00031210860505955483 0.0
0.0015196796936162407 -0.00040408808087043913 0.0
0.0013699949932328753 -0.00031876528723237855 0.0
0.0013674460478547033 -0.00028427253384301766 0.0
0.0015992934962290365 -0.00043373268706064204 0.0
0.0015330154100070084 -0.00044152344233563354 0.0
0.0012907471875741887 -0.0002882359287669953 0.0
0.001285608941965664 -0.0002547243802495044 0.0
0.0030758553549466365 -0.0002958300823105162 0.0
0.0031519901011436854 -0.000304305574538028 0.0
0.0016007399367854469 -0.00046904404180654835 0.0
0.0015351554984452793 -0.0004767058992889164 0.0
0.0031604471858598963 -0.00027194089479782956 0.0
0.003240004519337566 -0.00028074893326852717 0.0
0.0032283873919815536 -0.0003162603299408657 0.0
0.003316711106699678 -0.00029080982200597343 0.0
0.0033066877809935663 -0.00032726851977208206 0.0
0.0033948743896246004 -0.0002990433776717705 0.0
0.003389460942423773 -0.00033536833345342254 0.0
0.0034803132791777383 -0.00030347639422193586 0.0
0.003467420572736952 -0.00034061287972176143 0.0
0.0034857364345302452 -0.0002686979052666255 0.0
0.0035595589543349253 -0.00030938114621513 0.0
0.003542078449808755 -0.00034643027778520863 0.0
0.001602780975065692 -0.0005051036431570719 0.0
0.0012049669836511972 -0.0002579041861564428 0.0
0.0011983212747610347 -0.0002239980140239255 0.0
0.003457653728961669 -0.00037887054484783347 0.0
0.003529731471294055 -0.0003842487430760324 0.0
0.0036127265901021908 -0.00035134781407728194 0.0
0.0034513856389385205 -0.000418221177819714 0.0
0.0015386135525026065 -0.0005130536375890698 0.0
0.0036008884173265436 -0.0003887976402497691 0.0
0.003681860444626165 -0.00035499910269993015 0.0
0.0016045049336939543 -0.000542265608248887 0.0
0.001541435266182116 -0.0005505188157490136 0.0
0.0014766118600099804 -0.0005200944138073681 0.0