# vtk DataFile Version 2.0
phase field modeling fracture
ASCII
DATASET UNSTRUCTURED_GRID
POINTS 2538 float
0.0 0.0 0.0
10.0 0.0 0.0
0.0 10.0 0.0
10.0 10.0 0.0
0.0 4.9995 0.0
0.0 5.0005 0.0
5.0 5.0 0.0
0.9416964895726688 0.0 0.0
1.803581725054446 0.0 0.0
2.592419885431098 0.0 0.0
3.314401822861676 0.0 0.0
3.975193910351406 0.0 0.0
4.579982132660152 0.0 0.0
5.133512780936812 0.0 0.0
5.640130319506143 0.0 0.0
6.103810708661955 0.0 0.0
6.528192895506818 0.0 0.0
6.916607540127679 0.0 0.0
7.272102969376355 0.0 0.0
7.597469242948583 0.0 0.0
7.895259826292669 0.0 0.0
8.167811885738017 0.0 0.0
8.417264413845215 0.0 0.0
8.645575169389538 0.0 0.0
8.854535961159101 0.0 0.0
9.045786767735546 0.0 0.0
9.220828555767493 0.0 0.0
9.38103509633881 0.0 0.0
9.527663687265145 0.0 0.0
9.661865124984566 0.0 0.0
9.784692609918062 0.0 0.0
9.897110148790482 0.0 0.0
10.0 0.09999999999992584 0.0
10.0 0.199999999999856 0.0
10.0 0.2999999999997771 0.0
10.0 0.3999999999996677 0.0
10.0 0.4999999999995511 0.0
10.0 0.5999999999994683 0.0
10.0 0.6999999999993983 0.0
10.0 0.7999999999993286 0.0
10.0 0.8999999999992587 0.0
10.0 0.9999999999991888 0.0
10.0 1.099999999999119 0.0
10.0 1.199999999999033 0.0
10.0 1.299999999998852 0.0
10.0 1.399999999998576 0.0
10.0 1.499999999998284 0.0
10.0 1.599999999997992 0.0
10.0 1.6999999999977 0.0
10.0 1.799999999997408 0.0
10.0 1.899999999997116 0.0
10.0 1.999999999996825 0.0
10.0 2.099999999996533 0.0
10.0 2.199999999996241 0.0
10.0 2.299999999995949 0.0
10.0 2.399999999995657 0.0
10.0 2.499999999995365 0.0
10.0 2.599999999995073 0.0
10.0 2.699999999994782 0.0
10.0 2.79999999999449 0.0
10.0 2.899999999994198 0.0
10.0 2.999999999993906 0.0
10.0 3.099999999993614 0.0
10.0 3.199999999993322 0.0
10.0 3.299999999993029 0.0
10.0 3.399999999992738 0.0
10.0 3.499999999992446 0.0
10.0 3.599999999992154 0.0
10.0 3.699999999991863 0.0
10.0 3.799999999991571 0.0
10.0 3.899999999991278 0.0
10.0 3.999999999991022 0.0
10.0 4.099999999991035 0.0
10.0 4.199999999991187 0.0
10.0 4.299999999991338 0.0
10.0 4.399999999991491 0.0
10.0 4.499999999991642 0.0
10.0 4.599999999991795 0.0
10.0 4.699999999991947 0.0
10.0 4.799999999992099 0.0
10.0 4.89999999999225 0.0
10.0 4.999999999992403 0.0
10.0 5.099999999992555 0.0
10.0 5.199999999992706 0.0
10.0 5.299999999992858 0.0
10.0 5.39999999999301 0.0
10.0 5.499999999993161 0.0
10.0 5.599999999993313 0.0
10.0 5.699999999993466 0.0
10.0 5.799999999993618 0.0
10.0 5.899999999993771 0.0
10.0 5.999999999993922 0.0
10.0 6.099999999994074 0.0
10.0 6.199999999994227 0.0
10.0 6.299999999994378 0.0
10.0 6.39999999999453 0.0
10.0 6.499999999994682 0.0
10.0 6.599999999994833 0.0
10.0 6.699999999994986 0.0
10.0 6.799999999995138 0.0
10.0 6.899999999995289 0.0
10.0 6.999999999995442 0.0
10.0 7.099999999995594 0.0
10.0 7.199999999995747 0.0
10.0 7.299999999995897 0.0
10.0 7.39999999999605 0.0
10.0 7.499999999996202 0.0
10.0 7.599999999996353 0.0
10.0 7.699999999996505 0.0
10.0 7.799999999996658 0.0
10.0 7.899999999996808 0.0
10.0 7.999999999996962 0.0
10.0 8.099999999997113 0.0
10.0 8.199999999997265 0.0
10.0 8.299999999997418 0.0
10.0 8.399999999997569 0.0
10.0 8.499999999997721 0.0
10.0 8.599999999997873 0.0
10.0 8.699999999998024 0.0
10.0 8.799999999998176 0.0
10.0 8.899999999998329 0.0
10.0 8.99999999999848 0.0
10.0 9.099999999998634 0.0
10.0 9.199999999998786 0.0
10.0 9.299999999998937 0.0
10.0 9.399999999999089 0.0
10.0 9.499999999999241 0.0
10.0 9.599999999999392 0.0
10.0 9.699999999999545 0.0
10.0 9.799999999999697 0.0
10.0 9.899999999999848 0.0
9.897110148790565 10.0 0.0
9.784692609918244 10.0 0.0
9.66186512498486 10.0 0.0
9.527663687265571 10.0 0.0
9.381035096339392 10.0 0.0
9.220828555768257 10.0 0.0
9.045786767736512 10.0 0.0
8.854535961160305 10.0 0.0
8.645575169391027 10.0 0.0
8.417264413847017 10.0 0.0
8.167811885740178 10.0 0.0
7.895259826295246 10.0 0.0
7.597469242951631 10.0 0.0
7.272102969379938 10.0 0.0
6.916607540131873 10.0 0.0
6.528192895511704 10.0 0.0
6.103810708667616 10.0 0.0
5.640130319512691 10.0 0.0
5.13351278094435 10.0 0.0
4.579982132668816 10.0 0.0
3.975193910361222 10.0 0.0
3.314401822869852 10.0 0.0
2.592419885437257 10.0 0.0
1.803581725058137 10.0 0.0
0.9416964895740705 10.0 0.0
0.0 9.00010000000243 0.0
0.0 8.000200000005481 0.0
0.0 7.000300000005135 0.0
0.0 6.000400000002569 0.0
0.901790731451151 5.000409820926855 0.0
1.657200899774397 5.000334279910023 0.0
2.289991063707192 5.000271000893629 0.0
2.820065163538221 5.000217993483646 0.0
3.264096435579811 5.000173590356442 0.0
3.636051481595835 5.00013639485184 0.0
3.947629914072366 5.000105237008593 0.0
4.208632181002628 5.0000791367819 0.0
4.427267949625672 5.000057273205037 0.0
4.610414277633563 5.000038958572237 0.0
4.763831845154243 5.000023616815485 0.0
4.892346298799659 5.00001076537012 0.0
4.892346298799748 4.99998923462988 0.0
4.763831845154455 4.999976383184515 0.0
4.610414277633943 4.999961041427763 0.0
4.427267949626277 4.999942726794963 0.0
4.208632181003523 4.9999208632181 0.0
3.94762991407365 4.999894762991407 0.0
3.636051481597624 4.99986360514816 0.0
3.264096435582253 4.999826409643559 0.0
2.820065163541503 4.999782006516354 0.0
2.289991063711534 4.999728999106371 0.0
1.657200899778495 4.999665720089978 0.0
0.9017907314530094 4.999590179073145 0.0
0.0 3.999600000002013 0.0
0.0 2.999700000005187 0.0
0.0 1.99980000000512 0.0
0.0 0.9999000000025537 0.0
9.897889398521345 2.93573355845387 0.0
9.906568249974548 7.060009441434234 0.0
9.913122631074113 3.64016132281653 0.0
9.922462129543863 6.354535290629151 0.0
9.917693659967533 4.354211663134567 0.0
9.909873057440208 5.637584487339942 0.0
9.914183254994697 4.950672966925282 0.0
9.913885043715895 7.666887930262611 0.0
9.91009668007573 2.351889069770817 0.0
9.905135696074536 8.138152454502785 0.0
9.913397459621809 1.849999999997262 0.0
7.099302372137626 0.297750452375005 0.0
7.095143729410097 9.700359990366296 0.0
4.942912558701401 5.095838627899509 0.0
4.315009232304429 5.165022115481685 0.0
4.946182472483878 4.906763777264103 0.0
4.317967462990024 4.825955043772673 0.0
9.916390871492647 8.64999999999792 0.0
9.921504649680616 1.368376469890358 0.0
8.292538149791614 0.206877570318844 0.0
8.292538149793597 9.793122429681448 0.0
5.884594439766573 9.587645267048616 0.0
5.794826292691579 0.3794853783929359 0.0
9.913397459621425 9.049999999998557 0.0
9.908526577714177 0.9568239351922434 0.0
3.456851160380649 5.315740054130451 0.0
3.457889657868442 4.707121019609468 0.0
8.945214200703926 0.1503383337970344 0.0
8.950161364448409 9.8413906539257 0.0
9.913862335499305 4.055887885208452 0.0
9.916697353372683 4.650158482607802 0.0
9.919076340414442 6.049999999994006 0.0
9.906994308667635 5.25749687748192 0.0
9.917490342358025 6.655979201891897 0.0
9.915757520293784 7.343848891656911 0.0
9.910049507471042 3.363474386285078 0.0
9.914471988502868 2.647400064832979 0.0
9.91474124160965 9.337490423485129 0.0
9.916971008170838 0.6499999999994355 0.0
4.307157269264427 9.509674045029644 0.0
4.331527375865619 0.4401616696422582 0.0
9.45434939180249 9.878397030523757 0.0
9.457696120412969 0.1270877537061785 0.0
2.555070293622606 5.422044496190925 0.0
2.566232917480916 4.608001224030952 0.0
3.026511860837692 9.332320638257093 0.0
2.945561971800619 0.5895662714727601 0.0
7.7395404387124 0.2511088946967771 0.0
7.736379255744154 9.745848826372828 0.0
4.687135269408529 5.122111433928926 0.0
4.688420821504113 4.871895064967488 0.0
9.910554884115975 0.3448356354522978 0.0
9.911230082250466 9.65764729394159 0.0
9.921953841410854 6.851023993342036 0.0
9.912065178606017 5.448170483544033 0.0
9.911660025326261 3.861846960030188 0.0
9.914847467973438 3.14501593945607 0.0
9.913397459621425 5.849999999993703 0.0
9.913397459621425 7.849999999996735 0.0
9.906916878988277 2.15455769998631 0.0
9.913397459621425 8.349999999997479 0.0
9.909472363117661 1.640528221515488 0.0
9.913987325695956 1.152857110636247 0.0
9.913397459621425 8.849999999998241 0.0
0.9100099990995943 2.614215977520411 0.0
0.8395284981715456 7.451196254860987 0.0
9.723278867451556 9.898135916635193 0.0
9.723316350887044 0.09841820909386662 0.0
1.385819164827588 4.454539963646463 0.0
1.338343629665047 5.523111536005823 0.0
1.377179700550677 0.6809168304959698 0.0
1.418060461092743 9.285896715136046 0.0
9.91268220142518 0.1457914080939694 0.0
9.906737126737994 9.845745933882352 0.0
0.7108351382691361 6.537941170074089 0.0
1.527735020267026 6.915620208855231 0.0
1.630993885659103 7.838271825205868 0.0
2.232760943566823 7.370850737296832 0.0
2.243414218068206 6.688299277952821 0.0
2.779655053105118 7.021588754814074 0.0
2.80227799359795 7.632420170547022 0.0
3.282022065908813 7.305859666021318 0.0
3.327597298795347 7.857554136825748 0.0
3.743210251018715 7.549183328204379 0.0
3.716353232200752 7.062036086888612 0.0
4.111978858674101 7.27497101169417 0.0
4.104192177581432 6.879858986267289 0.0
4.436230765617037 7.045693351607117 0.0
4.430360014817357 6.703971783962796 0.0
4.732390145036301 6.849841042423394 0.0
5.056161327708878 5.095276573498806 0.0
5.111586796021131 4.999081142133581 0.0
5.169267363407189 5.09444870412406 0.0
5.223795108752053 4.996986220359468 0.0
5.281480803887719 5.092780870372803 0.0
5.335670761900611 4.994887492556936 0.0
5.393485214772442 5.090486192743301 0.0
5.447323082877892 4.992601527033996 0.0
5.505243219343024 5.087953380710069 0.0
5.558739102026105 4.990287787962959 0.0
5.616491581184779 5.085335255235766 0.0
5.669852346908056 4.9879269227514 0.0
5.727502713908907 5.082679981817038 0.0
5.780766004135139 4.988313988715834 0.0
5.838244881129535 5.080480568766611 0.0
5.891357695677371 4.986433849408193 0.0
5.948696036767613 5.077969900389505 0.0
6.001601341641615 4.981313698556656 0.0
6.058851024265095 5.074871552128682 0.0
6.111614020704875 4.978360695880202 0.0
6.168801161530775 5.072044953270978 0.0
6.221368818778567 4.975825765213497 0.0
6.278268309066882 5.066182320461055 0.0
6.330814273567539 4.972837984645718 0.0
6.387565032421376 5.062889771971895 0.0
6.437476667631405 4.971693683589553 0.0
[...]
POINT_DATA 2538
VECTORS disp float
1.4691941710739957e-11 3.352773311770662e-11 0.0
2.643887920054956e-11 -6.977772041604326e-11 0.0
0.003099999993381948 1.7229064609518973e-11 0.0
0.003099999969447933 -8.237571963467132e-11 0.0
0.0010884697115636209 0.00043746447336292816 0.0
0.002250816130312481 0.0001702434909526618 0.0
0.0015364508229521862 7.005254046340363e-5 0.0
2.5052806353762675e-12 -1.2461460624371733e-13 0.0
5.776012847606175e-12 5.7669215639108675e-12 0.0
4.820286069236914e-12 2.639841334188101e-12 0.0
4.4042438932608065e-12 2.4325539363026044e-12 0.0
3.730492625290671e-12 1.5951058916799554e-12 0.0
3.3352035308269803e-12 8.82113626052697e-13 0.0
2.9363499776484527e-12 2.884005725644701e-13 0.0
2.6459660661037255e-12 -4.217444857813346e-13 0.0
2.1756312399932674e-12 -1.2102784059665148e-12 0.0
2.401952598641413e-12 -2.026460108712535e-12 0.0
2.340736348855474e-12 -3.0016339776549536e-12 0.0
2.463071330806476e-12 -4.0599914124650374e-12 0.0
2.6675891450294425e-12 -5.1255724001689235e-12 0.0
2.7280423993268664e-12 -6.0511651618329156e-12 0.0
3.044865390461443e-12 -7.193974505671001e-12 0.0
3.1091381950042164e-12 -8.038390830218828e-12 0.0
3.354744949830268e-12 -9.122491826421668e-12 0.0
3.547235718423536e-12 -1.0261343163196368e-11 0.0
3.728174083862295e-12 -1.1341877024426904e-11 0.0
4.0006644694377595e-12 -1.2669225372396513e-11 0.0
4.358923540168196e-12 -1.4173622327809258e-11 0.0
4.9211306456602915e-12 -1.610795643096408e-11 0.0
5.0296838799853895e-12 -1.8160440156763212e-11 0.0
7.209483497309612e-12 -2.363958421079334e-11 0.0
3.4139521365273713e-12 -2.047684063126452e-11 0.0
4.0664339964146985e-5 -4.731838916857311e-5 0.0
7.09174009318568e-5 -8.058343441781045e-5 0.0
0.00010009158451105745 -0.00010941143663047502 0.0
0.00012776841642768498 -0.00013545999111452738 0.0
0.00015437006266341756 -0.0001596223332090918 0.0
0.0001804301480324821 -0.0001826117936119891 0.0
0.0002063952264593262 -0.00020446656796834845 0.0
0.00023202117890568875 -0.00022540295274411687 0.0
0.0002575576225919154 -0.00024563391362407715 0.0
0.0002830883702413223 -0.0002651358922350486 0.0
0.00030861950361151414 -0.0002841023293798509 0.0
0.0003343804443977016 -0.0003025109743625148 0.0
0.00036018171163774374 -0.0003203653265226003 0.0
0.0003861439178214292 -0.00033781982203051614 0.0
0.00041243587175850756 -0.0003547994729849535 0.0
0.00043878382200565174 -0.00037130266800331884 0.0
0.00046538549380986953 -0.0003874393415597818 0.0
0.0004922446838407494 -0.0004031037394695798 0.0
0.0005193309763804388 -0.0004184013930090286 0.0
0.0005466654711823474 -0.00043332281790072266 0.0
0.000574281145627326 -0.00044786479792044745 0.0
0.0006021233092341287 -0.0004620215753564413 0.0
0.0006303691252337631 -0.0004758474360607469 0.0
0.0006587275524459773 -0.0004892755945546366 0.0
0.000687545753209469 -0.0005023603860095291 0.0
0.0007164513862472267 -0.0005150412602162052 0.0
0.0007457079027837649 -0.0005273905150204513 0.0
0.000775177863917821 -0.0005393242541101701 0.0
0.0008050502265434895 -0.0005509353064589834 0.0
0.0008349936649450981 -0.0005621745674010823 0.0
0.0008653560400971941 -0.0005730747801197878 0.0
0.0008959229038768949 -0.0005835649559450258 0.0
0.000926788879595633 -0.0005937249156172061 0.0
0.0009578266527995062 -0.0006034942429863432 0.0
0.000989229807184126 -0.0006129255351418232 0.0
0.0010206923473086047 -0.0006219305780685755 0.0
0.0010524675996474834 -0.000630561337046591 0.0
0.0010843581835884772 -0.0006387025797559127 0.0
0.0011164543500604303 -0.000646374573214295 0.0
0.0011487363935051482 -0.0006537084950414454 0.0
0.0011811375007628716 -0.0006605204609904103 0.0
0.001213823285282545 -0.000666973422880853 0.0
0.001246707950578509 -0.0006729532282080144 0.0
0.0012797182502121596 -0.0006785841429488067 0.0
0.0013129448123978755 -0.0006836951925726096 0.0
0.001346166755752071 -0.000688431229206881 0.0
0.0013796218182587417 -0.000692758717760554 0.0
0.0014131107580725275 -0.0006966280722327657 0.0
0.0014467060956891516 -0.0007001521051468688 0.0
0.001480462486822779 -0.0007032129473464003 0.0
0.0015139978736269531 -0.0007057450427106623 0.0
0.0015478479883865451 -0.0007079472924120295 0.0
0.0015812113503223635 -0.0007096071481204295 0.0
0.0016150155136874708 -0.0007108721859170093 0.0
0.0016480492624462435 -0.0007116047489065929 0.0
0.0016816654025282245 -0.0007119641970047163 0.0
0.001714208454315366 -0.0007118355956860915 0.0
0.0017459815586222695 -0.0007104242003948966 0.0
0.001778042296293911 -0.0007087102555817976 0.0
0.0018099589321740749 -0.0007062032463521424 0.0
0.0018412363508589213 -0.0007035288076221945 0.0
0.0018721866494612778 -0.0007001031041052938 0.0
0.0019033194492904637 -0.0006962101286927976 0.0
0.0019338462392134036 -0.0006909043390904929 0.0
0.001964873512509505 -0.0006850017247334253 0.0
0.0019966591502837095 -0.0006785677561192962 0.0
0.00202736251136748 -0.0006711280537135991 0.0
0.0020583227847495887 -0.0006629628152850683 0.0
0.002089737796485384 -0.0006538385784752381 0.0
0.0021213778143049124 -0.0006440339954738896 0.0
0.0021526309722667406 -0.0006334899774371771 0.0
0.0021843721436219585 -0.0006219678217519587 0.0
0.0022157473314613624 -0.0006097527956204791 0.0
0.0022472209304597044 -0.0005970557381705361 0.0
0.0022790800769844515 -0.0005835680817832616 0.0
0.0023106823745389967 -0.0005695900263797301 0.0
0.002342386275749105 -0.0005550336082394146 0.0
0.002373985871707908 -0.0005399860557059024 0.0
0.0024057769669560813 -0.0005244199932866148 0.0
0.0024375531499415365 -0.0005082897357899185 0.0
0.0024692533554303234 -0.0004916582001192825 0.0
0.002500693018420327 -0.00047453141642805804 0.0
0.0025321210679113085 -0.000456911108041459 0.0
0.002563574688830621 -0.00043870235953822527 0.0
0.002594846119848594 -0.00041997419556923647 0.0
0.0026261180597519935 -0.0004007655445046924 0.0
0.002657547161145521 -0.00038087533274292726 0.0
0.00268885089542408 -0.00036034314238913006 0.0
0.0027200696343346424 -0.00033921884526421514 0.0
0.002751515721080846 -0.0003173440118507997 0.0
0.002783197860397458 -0.0002945795098800637 0.0
0.002814919541279518 -0.00027089682336369414 0.0
0.0028467563839296457 -0.000246279410798355 0.0
0.002878963119049924 -0.0002204522854540701 0.0
0.002911957267632958 -0.00019308250489248965 0.0
0.00294532179863984 -0.00016396562287574254 0.0
0.0029794296277020063 -0.0001324174473050729 0.0
0.003015719221816509 -9.71653449746133e-5 0.0
0.0030531165443894886 -5.645624702464204e-5 0.0
0.0030999999958209413 -2.0890661500056338e-11 0.0
0.0030999999913687345 -2.3355625799398164e-11 0.0
0.0030999999945608776 -1.4110195093371291e-11 0.0
0.003099999994537213 -1.2216396074523924e-11 0.0
0.0030999999950326266 -9.853889963342995e-12 0.0
0.0030999999952359535 -8.248446033662648e-12 0.0
0.003099999995319845 -7.092366729744811e-12 0.0
0.0030999999954963034 -6.0851062391764725e-12 0.0
0.0030999999955501774 -5.178624317109641e-12 0.0
0.003099999995702707 -4.3419718913515494e-12 0.0
0.0030999999958690235 -3.6818218740695305e-12 0.0
0.0030999999959833704 -2.844439150459273e-12 0.0
0.0030999999960963547 -2.2213685052231696e-12 0.0
0.0030999999962279057 -1.4676050914493064e-12 0.0
0.0030999999963081926 -7.362858254930999e-13 0.0
0.0030999999963491195 8.597256553176195e-14 0.0
0.0030999999964130913 9.299901669615364e-13 0.0
0.0030999999961052304 1.935899979753085e-12 0.0
0.0030999999964188333 2.7589264595977934e-12 0.0
0.0030999999958697625 3.847624085506289e-12 0.0
0.003099999995917941 4.577330993793856e-12 0.0
0.003099999995758162 5.335144880239789e-12 0.0
0.003099999995914172 5.5134480821533366e-12 0.0
0.0030999999961081755 6.95963090766525e-12 0.0
0.0030999999979664516 3.2065328506440725e-12 0.0
0.0028678800949961053 0.00012224298804632523 0.0
0.0026729800040223104 0.00017746964498047076 0.0
0.0024977465355048144 0.00018765178628774495 0.0
0.002346956307349252 0.0001792528850069426 0.0
0.0022506332180557867 7.249435163301344e-5 0.0
0.002240738460870055 1.888923327642375e-5 0.0
0.0022072172396981043 -9.650372468331184e-6 0.0
0.00216092085836281 -1.1146711748448029e-5 0.0
0.0021053882379548504 1.1535194348655008e-6 0.0
0.0020471498926759686 1.5614247298928558e-5 0.0
0.0019873645471929296 2.941874470098635e-5 0.0
0.001926939284899931 4.3133660640792866e-5 0.0
0.0018646928935731717 5.442642514847644e-5 0.0
0.0018001270525870032 6.292114066573263e-5 0.0
0.0017298705154139666 6.872624260895294e-5 0.0
0.001647231287087775 7.237031307335656e-5 0.0
0.0014424543498963896 0.0001086996111557922 0.0
0.0013758801827339119 0.00012426391105919336 0.0
0.0013209023598210726 0.00013342329634960314 0.0
0.0012729865723271243 0.0001407308542156601 0.0
0.0012295518594771294 0.00014753681962173195 0.0
0.0011903475491148916 0.00015469522439710308 0.0
0.0011551226004882303 0.00016332398971081815 0.0
0.0011251967454351368 0.0001744296235771528 0.0
0.0011020440896494018 0.0001921860056325831 0.0
0.0010859475980226285 0.00021702662467001327 0.0
0.0010849853483669513 0.00026527234755885674 0.0
0.0010843674185301334 0.0003320121257013005 0.0
0.0009739639003159907 0.00045131699330362365 0.0
0.0008113320834443541 0.00043754934315268554 0.0
0.0005746859226089333 0.0003598140914779725 0.0
0.00030698620166091163 0.00023343474093388597 0.0
0.000809978902438034 -0.0005283409634406924 0.0
0.002146364289162454 -0.0005994157431323288 0.0
0.001029374395865107 -0.0006014261368230626 0.0
0.0019230641207332872 -0.0006635861413893181 0.0
0.0012618673608764093 -0.0006524993410976144 0.0
0.0016941639234752323 -0.0006835116023992795 0.0
0.0014622547826114265 -0.0006764224698065435 0.0
0.002339271628057667 -0.0005260498424907614 0.0
0.0006393995892143651 -0.0004604220022663832 0.0
0.002490133897309457 -0.0004495996102056885 0.0
0.0004998790684219634 -0.0003901063000288774 0.0
5.03791287082626e-5 -9.09582227065664e-6 0.0
0.003044476443148775 -6.347115855058728e-6 0.0
0.0016578957015206323 9.10631837985269e-5 0.0
0.0018960482030228759 6.779025179916075e-5 0.0
0.001415031631626086 0.00010839263570652773 0.0
0.0012315630812274698 0.00015625553321473054 0.0
0.002650254067805651 -0.00036083166624067693 0.0
0.00037212531283224124 -0.0003142363973744846 0.0
3.709010050817059e-5 -1.5429011899950776e-5 0.0
0.003060008165151673 -1.0813846388616128e-5 0.0
0.0030222829811487662 2.9612308987274613e-6 0.0
6.638458936604384e-5 2.017571478834363e-6 0.0
0.0027766545761262608 -0.00027582549954518077 0.0
0.00026488224488550025 -0.0002362155487078577 0.0
0.0020660041132841466 3.5518694993032926e-5 0.0
0.0011102053345406755 0.00017968153750664336 0.0
2.8692635554915786e-5 -1.6049692025605004e-5 0.0
0.003068219920819972 -1.2497028846617797e-5 0.0
0.0011635896803728737 -0.0006332543549576557 0.0
0.0013607772907868047 -0.0006665144623012832 0.0
0.0018275892163025496 -0.0006766433424386835 0.0
0.0015662340917071864 -0.0006809508798170821 0.0
0.0020178600079546294 -0.0006411075719229883 0.0
0.0022359989322360543 -0.0005702628194102792 0.0
0.0009419050565468254 -0.0005756476508398898 0.0
0.0007251725669255467 -0.0004990673199523321 0.0
0.002868510053375918 -0.00020755372502298045 0.0
0.00018645090073034147 -0.00017480603366630507 0.0
0.003000973890376651 1.793320620330003e-5 0.0
8.664815185048499e-5 1.2592887984344251e-5 0.0
0.0030737921918500906 -1.5224855825848649e-5 0.0
2.7160064958132627e-5 -1.9221016930998715e-5 0.0
0.0021781143219780285 1.4324201951767806e-5 0.0
0.0010492804446911295 0.00020963386001154855 0.0
0.002959913864278632 3.2293432413855405e-5 0.0
0.0001264498094010889 2.5420220461961177e-5 0.0
4.364113813095265e-5 -1.3395256569379423e-5 0.0
0.003051948935710617 -9.413499072201987e-6 0.0
0.0017767011928689492 8.417828598269727e-5 0.0
0.0013223430205928685 0.0001411630777019494 0.0
0.00010426831373984991 -0.00010064496596523294 0.0
0.002976295287715731 -0.00011685421469335041 0.0
0.0020789176234563026 -0.0006262606023204967 0.0
0.0016307112490745593 -0.0006842516454322113 0.0
0.0011005446910724056 -0.000618795252199713 0.0
0.0008745507263102467 -0.000555187953501336 0.0
0.0017636112730594468 -0.0006813397273350583 0.0
0.0023975438768834172 -0.0004987674077010017 0.0
0.0005834136372545196 -0.00043282217300711175 0.0
0.0025562154786496036 -0.00041594639413638254 0.0
0.000443131681199742 -0.00035664283098892037 0.0
0.0003156712167952534 -0.0002743420143725185 0.0
0.0027134149878118158 -0.00031929490502597904 0.0
0.000674749995126327 0.00023010072585291318 0.0
0.0025650031935228355 0.00011175546718807997 0.0
0.0030739764244956886 -2.006169546439785e-5 0.0
2.37168871623872e-5 -1.9757907885992e-5 0.0
0.0010257198260172073 0.00028674872239791506 0.0
0.0022700608538383025 5.018968459888579e-5 0.0
0.0001501135630457293 4.058579944602665e-5 0.0
0.0029568125304093623 3.6615896240687636e-5 0.0
4.5895247850271685e-5 -4.4834369856920885e-5 0.0
0.0030453651355685563 -5.253358774188176e-5 0.0
0.0024121095180364123 0.00010875559571328505 0.0
0.002447082338299967 9.390742752384835e-5 0.0
0.0026385676545784007 8.706097856179989e-5 0.0
0.0025229161074049587 9.374266790638847e-5 0.0
0.0023733985553710153 8.686485086258723e-5 0.0
0.002423090582998448 0.0001009507527458807 0.0
0.002568641466056353 9.568880950081768e-5 0.0
0.0024763521255324735 0.00010538824516644891 0.0
0.002615003177429723 9.181615459965562e-5 0.0
0.0025309470351627165 9.945921633760951e-5 0.0
0.0024012498137311955 0.00011134988286811218 0.0
0.002452312551477275 0.00010281035302202787 0.0
0.002341318671630651 0.00011289169408260702 0.0
0.0023834469030640836 0.00010175713021065489 0.0
0.0022833740851913014 0.00011098843413666653 0.0
0.0023217398176895243 9.637380898178601e-5 0.0
0.0016196594194952626 5.7319472435105615e-5 0.0
0.00152897208428542 4.2481932279077046e-5 0.0
0.0015967954846585937 3.570479422021843e-5 0.0
0.0015231774220504292 2.4906173388303744e-5 0.0
0.0015828185903371528 1.9179093522858322e-5 0.0
0.0015193930331585592 1.0918721086109324e-5 0.0
0.0015734304721551292 5.594614581662899e-6 0.0
0.0015159075663549722 -1.6466506976045071e-6 0.0
0.0015663621763870852 -6.567960057745107e-6 0.0
0.0015128482502915447 -1.3249159662233375e-5 0.0
0.001560808374587087 -1.7788627248340592e-5 0.0
0.0015102017121491741 -2.4172956467307264e-5 0.0
0.001556297118319131 -2.8796991570111084e-5 0.0
0.0015091454634138428 -3.485324819699514e-5 0.0
0.001552573424670654 -3.9460710374488174e-5 0.0
0.0015070190257951116 -4.5412514860280554e-5 0.0
0.001549124188162511 -4.994169132744879e-5 0.0
0.0015035515146696774 -5.587234793704216e-5 0.0
0.001545744806002437 -6.0411928748972336e-5 0.0
0.0015012394439243698 -6.62583898501633e-5 0.0
0.001542774896934436 -7.091998845728032e-5 0.0
0.0014991630311856604 -7.670538544828793e-5 0.0
0.0015386340853403993 -8.143626114083603e-5 0.0
0.0014968658952270457 -8.726756095707605e-5 0.0
0.0015357273198728834 -9.206898122909983e-5 0.0
0.0014953883966834964 -9.76774975996587e-5 0.0
0.0015330882999551607 -0.0001028234497422373 0.0
0.0014913302404358927 -0.00010784134683459612 0.0
0.0015300198572329006 -0.00011370085404578858 0.0
0.0014794918278705346 -0.00011902499770196274 0.0
0.0015296196245411535 -0.00012493967683318164 0.0
0.0014867775704264063 -0.00013085998529292702 0.0
0.0015267449745265023 -0.00013630146254077464 0.0
0.0014861001593567907 -0.00014247088355073454 0.0
0.001524522936335095 -0.00014799588300328035 0.0
0.0014865583672236643 -0.00015420402000862287 0.0
0.0015221392703930804 -0.0001599042530943861 0.0
0.0014851026274488547 -0.00016640668300633456 0.0
0.0014654578221186569 -6.861529266986694e-6 0.0
0.0015197211741174532 -0.0001721542117970058 0.0
0.0014589266095044139 -6.1001415267071714e-5 0.0
0.001440964710068266 -0.00012845313793165693 0.0
0.0014806857423267478 -0.00017877820943538406 0.0
0.0015170138043467628 -0.00018472026378044446 0.0
0.0014763027003412937 -0.0001919172733921451 0.0
0.0014406847171514927 -0.0001847468120613912 0.0
0.0014352782459066543 -0.00019849785338223798 0.0
0.0015127532347634285 -0.00019839670422802663 0.0
0.0015540246405185943 -0.00019069893913103842 0.0
0.0015658209910507925 -0.00012970157919799853 0.0
0.0015500049169176544 -0.00020478782176014867 0.0
0.0015938783968007047 -0.0001956869433950278 0.0
0.001588381602202557 -0.0002111215805213375 0.0
0.0014000746222710963 -0.00019094623240355354 0.0
0.001396157122808923 -0.00020437022235020405 0.0
0.0016336618412206572 -0.00020122582040358282 0.0
0.0013587072408267763 -0.00019638400652006457 0.0
0.0013571026734265686 -0.00021039504135684283 0.0
0.0016289063694887578 -0.0002168617101297355 0.0
0.0016727605589160236 -0.000207682050590542 0.0
0.0013170699728498735 -0.00020183447397716358 0.0
0.0013145084593273472 -0.00021620894021559723 0.0
0.0016689530908427994 -0.00022322951961178822 0.0
0.0017140817166407959 -0.00021349140089446054 0.0
0.0012756355701945504 -0.00020717685988015983 0.0
0.0012726884605267022 -0.00022234331565541894 0.0
0.001710103247321458 -0.0002298603264151838 0.0
0.0017565096616277026 -0.00021916984816282897 0.0
0.0012345965670653458 -0.00021163115134800256 0.0
0.001228967245634087 -0.00022720055907931693 0.0
0.001753044180969409 -0.00023596048033306148 0.0
0.0017997653985924675 -0.00022465988432829708 0.0
0.0011895616051947572 -0.00021598852900500378 0.0
0.0011850344819144235 -0.00023234475147510694 0.0
0.0011432770479277822 -0.0002211786362022567 0.0
0.001147715171457276 -0.0002038999809379676 0.0
0.0017023975170941297 -0.0002460282945819579 0.0
0.0017960168570567698 -0.00024213287535334628 0.0
0.0018437306573343942 -0.00023001478963032828 0.0
0.0018482617470140712 -0.00021203194287182638 0.0
0.0015795457337355312 -7.596004392410335e-5 0.0
0.001894074610021723 -0.0002170038008629835 0.0
0.001899020476580414 -0.00019830156785040159 0.0
0.0019463925203217715 -0.0002026171047114312 0.0
0.001142343190632577 -0.000238749805824917 0.0
0.0010987717167433647 -0.00022564622386984587 0.0
0.0011833646979128917 -0.00024987654187649767 0.0
0.0018385341848378052 -0.00024843957023283793 0.0
0.0010984592640740358 -0.0002435958529535724 0.0
0.0010543879786814878 -0.0002294464639550004 0.0
0.0016006936236122222 -3.2433890418632957e-5 0.0
0.0010540552748583975 -0.00024693435962488443 0.0
0.0010100318015353832 -0.00023249923514238682 0.0
0.0010099412046369325 -0.0002503289524954856 0.0
0.0009665298896298856 -0.00023454323022435093 0.0
0.000965688971859729 -0.00021718205138839602 0.0
0.000919549862871093 -0.00021961706231134296 0.0
0.0009194462916344187 -0.00020130269616204803 0.0
0.0009613422604340138 -0.0002520151520124285 0.0
0.000869866943525355 -0.00020381618732817508 0.0
0.0008694270318030038 -0.00018507231351005377 0.0
0.001010346022167753 -0.00026914915897405516 0.0
0.0009690699733500495 -0.00027231588387627043 0.0
0.0008210053753393196 -0.0001860591680313127 0.0
0.0008188977880245531 -0.00016772696308781264 0.0
0.0019526841859558851 -0.00018362959684910615 0.0
0.0020020377708448787 -0.00018761694113770167 0.0
0.0010107854196178328 -0.0002881875652845351 0.0
0.0009701240487317447 -0.0002911683355963309 0.0
0.002008928888742772 -0.00016799073345637007 0.0
0.002060724281905983 -0.00017204613457647087 0.0
0.002051458046628342 -0.00019360320281525944 0.0
0.0021106207613400523 -0.0001768129771481336 0.0
0.0021021306784631934 -0.00019884225676142673 0.0
0.0021614282675185914 -0.0001803235423153697 0.0
0.002155693526806158 -0.0002020902477976839 0.0
0.002217071284625946 -0.00018124269218793717 0.0
0.002206119453394376 -0.00020356623551671813 0.0
0.0022227378439331094 -0.00016037246732368446 0.0
0.0022683272318005745 -0.00018297110823460876 0.0
0.002254055318696675 -0.0002052496072888662 0.0
0.0010118187696749764 -0.0003075797360189243 0.0
0.0007678474901334595 -0.00016813294612766459 0.0
0.0007647351246864514 -0.0001494178961642298 0.0
0.0021968557955815344 -0.00022643162944212313 0.0
0.002242700275358086 -0.00022774526860216634 0.0
0.002298944214437422 -0.0002061677192808479 0.0
0.002189443653996764 -0.0002496789592676269 0.0
0.0009722012600744892 -0.00031062887665264096 0.0
0.0022874338213274194 -0.00022824711768399138 0.0
0.0023424827015702775 -0.00020604581838305837 0.0