# vtk DataFile Version 2.0
phase field modeling fracture
ASCII
DATASET UNSTRUCTURED_GRID
POINTS 2538 float
0.0 0.0 0.0
10.0 0.0 0.0
0.0 10.0 0.0
10.0 10.0 0.0
0.0 4.9995 0.0
0.0 5.0005 0.0
5.0 5.0 0.0
0.9416964895726688 0.0 0.0
1.803581725054446 0.0 0.0
2.592419885431098 0.0 0.0
3.314401822861676 0.0 0.0
3.975193910351406 0.0 0.0
4.579982132660152 0.0 0.0
5.133512780936812 0.0 0.0
5.640130319506143 0.0 0.0
6.103810708661955 0.0 0.0
6.528192895506818 0.0 0.0
6.916607540127679 0.0 0.0
7.272102969376355 0.0 0.0
7.597469242948583 0.0 0.0
7.895259826292669 0.0 0.0
8.167811885738017 0.0 0.0
8.417264413845215 0.0 0.0
8.645575169389538 0.0 0.0
8.854535961159101 0.0 0.0
9.045786767735546 0.0 0.0
9.220828555767493 0.0 0.0
9.38103509633881 0.0 0.0
9.527663687265145 0.0 0.0
9.661865124984566 0.0 0.0
9.784692609918062 0.0 0.0
9.897110148790482 0.0 0.0
10.0 0.09999999999992584 0.0
10.0 0.199999999999856 0.0
10.0 0.2999999999997771 0.0
10.0 0.3999999999996677 0.0
10.0 0.4999999999995511 0.0
10.0 0.5999999999994683 0.0
10.0 0.6999999999993983 0.0
10.0 0.7999999999993286 0.0
10.0 0.8999999999992587 0.0
10.0 0.9999999999991888 0.0
10.0 1.099999999999119 0.0
10.0 1.199999999999033 0.0
10.0 1.299999999998852 0.0
10.0 1.399999999998576 0.0
10.0 1.499999999998284 0.0
10.0 1.599999999997992 0.0
10.0 1.6999999999977 0.0
10.0 1.799999999997408 0.0
10.0 1.899999999997116 0.0
10.0 1.999999999996825 0.0
10.0 2.099999999996533 0.0
10.0 2.199999999996241 0.0
10.0 2.299999999995949 0.0
10.0 2.399999999995657 0.0
10.0 2.499999999995365 0.0
10.0 2.599999999995073 0.0
10.0 2.699999999994782 0.0
10.0 2.79999999999449 0.0
10.0 2.899999999994198 0.0
10.0 2.999999999993906 0.0
10.0 3.099999999993614 0.0
10.0 3.199999999993322 0.0
10.0 3.299999999993029 0.0
10.0 3.399999999992738 0.0
10.0 3.499999999992446 0.0
10.0 3.599999999992154 0.0
10.0 3.699999999991863 0.0
10.0 3.799999999991571 0.0
10.0 3.899999999991278 0.0
10.0 3.999999999991022 0.0
10.0 4.099999999991035 0.0
10.0 4.199999999991187 0.0
10.0 4.299999999991338 0.0
10.0 4.399999999991491 0.0
10.0 4.499999999991642 0.0
10.0 4.599999999991795 0.0
10.0 4.699999999991947 0.0
10.0 4.799999999992099 0.0
10.0 4.89999999999225 0.0
10.0 4.999999999992403 0.0
10.0 5.099999999992555 0.0
10.0 5.199999999992706 0.0
10.0 5.299999999992858 0.0
10.0 5.39999999999301 0.0
10.0 5.499999999993161 0.0
10.0 5.599999999993313 0.0
10.0 5.699999999993466 0.0
10.0 5.799999999993618 0.0
10.0 5.899999999993771 0.0
10.0 5.999999999993922 0.0
10.0 6.099999999994074 0.0
10.0 6.199999999994227 0.0
10.0 6.299999999994378 0.0
10.0 6.39999999999453 0.0
10.0 6.499999999994682 0.0
10.0 6.599999999994833 0.0
10.0 6.699999999994986 0.0
10.0 6.799999999995138 0.0
10.0 6.899999999995289 0.0
10.0 6.999999999995442 0.0
10.0 7.099999999995594 0.0
10.0 7.199999999995747 0.0
10.0 7.299999999995897 0.0
10.0 7.39999999999605 0.0
10.0 7.499999999996202 0.0
10.0 7.599999999996353 0.0
10.0 7.699999999996505 0.0
10.0 7.799999999996658 0.0
10.0 7.899999999996808 0.0
10.0 7.999999999996962 0.0
10.0 8.099999999997113 0.0
10.0 8.199999999997265 0.0
10.0 8.299999999997418 0.0
10.0 8.399999999997569 0.0
10.0 8.499999999997721 0.0
10.0 8.599999999997873 0.0
10.0 8.699999999998024 0.0
10.0 8.799999999998176 0.0
10.0 8.899999999998329 0.0
10.0 8.99999999999848 0.0
10.0 9.099999999998634 0.0
10.0 9.199999999998786 0.0
10.0 9.299999999998937 0.0
10.0 9.399999999999089 0.0
10.0 9.499999999999241 0.0
10.0 9.599999999999392 0.0
10.0 9.699999999999545 0.0
10.0 9.799999999999697 0.0
10.0 9.899999999999848 0.0
9.897110148790565 10.0 0.0
9.784692609918244 10.0 0.0
9.66186512498486 10.0 0.0
9.527663687265571 10.0 0.0
9.381035096339392 10.0 0.0
9.220828555768257 10.0 0.0
9.045786767736512 10.0 0.0
8.854535961160305 10.0 0.0
8.645575169391027 10.0 0.0
8.417264413847017 10.0 0.0
8.167811885740178 10.0 0.0
7.895259826295246 10.0 0.0
7.597469242951631 10.0 0.0
7.272102969379938 10.0 0.0
6.916607540131873 10.0 0.0
6.528192895511704 10.0 0.0
6.103810708667616 10.0 0.0
5.640130319512691 10.0 0.0
5.13351278094435 10.0 0.0
4.579982132668816 10.0 0.0
3.975193910361222 10.0 0.0
3.314401822869852 10.0 0.0
2.592419885437257 10.0 0.0
1.803581725058137 10.0 0.0
0.9416964895740705 10.0 0.0
0.0 9.00010000000243 0.0
0.0 8.000200000005481 0.0
0.0 7.000300000005135 0.0
0.0 6.000400000002569 0.0
0.901790731451151 5.000409820926855 0.0
1.657200899774397 5.000334279910023 0.0
2.289991063707192 5.000271000893629 0.0
2.820065163538221 5.000217993483646 0.0
3.264096435579811 5.000173590356442 0.0
3.636051481595835 5.00013639485184 0.0
3.947629914072366 5.000105237008593 0.0
4.208632181002628 5.0000791367819 0.0
4.427267949625672 5.000057273205037 0.0
4.610414277633563 5.000038958572237 0.0
4.763831845154243 5.000023616815485 0.0
4.892346298799659 5.00001076537012 0.0
4.892346298799748 4.99998923462988 0.0
4.763831845154455 4.999976383184515 0.0
4.610414277633943 4.999961041427763 0.0
4.427267949626277 4.999942726794963 0.0
4.208632181003523 4.9999208632181 0.0
3.94762991407365 4.999894762991407 0.0
3.636051481597624 4.99986360514816 0.0
3.264096435582253 4.999826409643559 0.0
2.820065163541503 4.999782006516354 0.0
2.289991063711534 4.999728999106371 0.0
1.657200899778495 4.999665720089978 0.0
0.9017907314530094 4.999590179073145 0.0
0.0 3.999600000002013 0.0
0.0 2.999700000005187 0.0
0.0 1.99980000000512 0.0
0.0 0.9999000000025537 0.0
9.897889398521345 2.93573355845387 0.0
9.906568249974548 7.060009441434234 0.0
9.913122631074113 3.64016132281653 0.0
9.922462129543863 6.354535290629151 0.0
9.917693659967533 4.354211663134567 0.0
9.909873057440208 5.637584487339942 0.0
9.914183254994697 4.950672966925282 0.0
9.913885043715895 7.666887930262611 0.0
9.91009668007573 2.351889069770817 0.0
9.905135696074536 8.138152454502785 0.0
9.913397459621809 1.849999999997262 0.0
7.099302372137626 0.297750452375005 0.0
7.095143729410097 9.700359990366296 0.0
4.942912558701401 5.095838627899509 0.0
4.315009232304429 5.165022115481685 0.0
4.946182472483878 4.906763777264103 0.0
4.317967462990024 4.825955043772673 0.0
9.916390871492647 8.64999999999792 0.0
9.921504649680616 1.368376469890358 0.0
8.292538149791614 0.206877570318844 0.0
8.292538149793597 9.793122429681448 0.0
5.884594439766573 9.587645267048616 0.0
5.794826292691579 0.3794853783929359 0.0
9.913397459621425 9.049999999998557 0.0
9.908526577714177 0.9568239351922434 0.0
3.456851160380649 5.315740054130451 0.0
3.457889657868442 4.707121019609468 0.0
8.945214200703926 0.1503383337970344 0.0
8.950161364448409 9.8413906539257 0.0
9.913862335499305 4.055887885208452 0.0
9.916697353372683 4.650158482607802 0.0
9.919076340414442 6.049999999994006 0.0
9.906994308667635 5.25749687748192 0.0
9.917490342358025 6.655979201891897 0.0
9.915757520293784 7.343848891656911 0.0
9.910049507471042 3.363474386285078 0.0
9.914471988502868 2.647400064832979 0.0
9.91474124160965 9.337490423485129 0.0
9.916971008170838 0.6499999999994355 0.0
4.307157269264427 9.509674045029644 0.0
4.331527375865619 0.4401616696422582 0.0
9.45434939180249 9.878397030523757 0.0
9.457696120412969 0.1270877537061785 0.0
2.555070293622606 5.422044496190925 0.0
2.566232917480916 4.608001224030952 0.0
3.026511860837692 9.332320638257093 0.0
2.945561971800619 0.5895662714727601 0.0
7.7395404387124 0.2511088946967771 0.0
7.736379255744154 9.745848826372828 0.0
4.687135269408529 5.122111433928926 0.0
4.688420821504113 4.871895064967488 0.0
9.910554884115975 0.3448356354522978 0.0
9.911230082250466 9.65764729394159 0.0
9.921953841410854 6.851023993342036 0.0
9.912065178606017 5.448170483544033 0.0
9.911660025326261 3.861846960030188 0.0
9.914847467973438 3.14501593945607 0.0
9.913397459621425 5.849999999993703 0.0
9.913397459621425 7.849999999996735 0.0
9.906916878988277 2.15455769998631 0.0
9.913397459621425 8.349999999997479 0.0
9.909472363117661 1.640528221515488 0.0
9.913987325695956 1.152857110636247 0.0
9.913397459621425 8.849999999998241 0.0
0.9100099990995943 2.614215977520411 0.0
0.8395284981715456 7.451196254860987 0.0
9.723278867451556 9.898135916635193 0.0
9.723316350887044 0.09841820909386662 0.0
1.385819164827588 4.454539963646463 0.0
1.338343629665047 5.523111536005823 0.0
1.377179700550677 0.6809168304959698 0.0
1.418060461092743 9.285896715136046 0.0
9.91268220142518 0.1457914080939694 0.0
9.906737126737994 9.845745933882352 0.0
0.7108351382691361 6.537941170074089 0.0
1.527735020267026 6.915620208855231 0.0
1.630993885659103 7.838271825205868 0.0
2.232760943566823 7.370850737296832 0.0
2.243414218068206 6.688299277952821 0.0
2.779655053105118 7.021588754814074 0.0
2.80227799359795 7.632420170547022 0.0
3.282022065908813 7.305859666021318 0.0
3.327597298795347 7.857554136825748 0.0
3.743210251018715 7.549183328204379 0.0
3.716353232200752 7.062036086888612 0.0
4.111978858674101 7.27497101169417 0.0
4.104192177581432 6.879858986267289 0.0
4.436230765617037 7.045693351607117 0.0
4.430360014817357 6.703971783962796 0.0
4.732390145036301 6.849841042423394 0.0
5.056161327708878 5.095276573498806 0.0
5.111586796021131 4.999081142133581 0.0
5.169267363407189 5.09444870412406 0.0
5.223795108752053 4.996986220359468 0.0
5.281480803887719 5.092780870372803 0.0
5.335670761900611 4.994887492556936 0.0
5.393485214772442 5.090486192743301 0.0
5.447323082877892 4.992601527033996 0.0
5.505243219343024 5.087953380710069 0.0
5.558739102026105 4.990287787962959 0.0
5.616491581184779 5.085335255235766 0.0
5.669852346908056 4.9879269227514 0.0
5.727502713908907 5.082679981817038 0.0
5.780766004135139 4.988313988715834 0.0
5.838244881129535 5.080480568766611 0.0
5.891357695677371 4.986433849408193 0.0
5.948696036767613 5.077969900389505 0.0
6.001601341641615 4.981313698556656 0.0
6.058851024265095 5.074871552128682 0.0
6.111614020704875 4.978360695880202 0.0
6.168801161530775 5.072044953270978 0.0
6.221368818778567 4.975825765213497 0.0
6.278268309066882 5.066182320461055 0.0
6.330814273567539 4.972837984645718 0.0
6.387565032421376 5.062889771971895 0.0
6.437476667631405 4.971693683589553 0.0
[...]
POINT_DATA 2538
VECTORS disp float
1.4953941580355263e-11 3.4528489684763094e-11 0.0
2.74991713326762e-11 -7.306457448895571e-11 0.0
0.003199999992610941 1.8979051512478272e-11 0.0
0.0031999999687837132 -8.452591498095557e-11 0.0
0.0011129169849481736 0.0004486106504455062 0.0
0.0023180214982860565 0.00018388810105413132 0.0
0.0015828158481664067 7.529924661949348e-5 0.0
2.7499092062288496e-12 2.522928498529264e-13 0.0
6.067875590354949e-12 6.226731266920852e-12 0.0
5.122526935185899e-12 3.0102065746472507e-12 0.0
4.71743777437188e-12 2.765781684726985e-12 0.0
4.051095422744524e-12 1.846253704250701e-12 0.0
3.635907488097418e-12 1.0770781599930812e-12 0.0
3.2260873485385234e-12 4.1301994521448183e-13 0.0
2.9245520459444418e-12 -3.54476921794617e-13 0.0
2.4296602227531025e-12 -1.2046222520249546e-12 0.0
2.6577062993198668e-12 -2.061636682889223e-12 0.0
2.5854283964381737e-12 -3.0887917297664643e-12 0.0
2.700779769739631e-12 -4.2040069047746265e-12 0.0
2.9060499838792682e-12 -5.327775982132169e-12 0.0
2.96152398735921e-12 -6.31834361302014e-12 0.0
3.281714345295129e-12 -7.532543822858653e-12 0.0
3.345619057469517e-12 -8.450864124311956e-12 0.0
3.603388464980355e-12 -9.611840229045225e-12 0.0
3.792722440758517e-12 -1.0847565855255772e-11 0.0
3.988850371871656e-12 -1.2021133315805422e-11 0.0
4.271671307271276e-12 -1.3459150735598867e-11 0.0
4.641841673593311e-12 -1.5089650060744662e-11 0.0
5.230070604534291e-12 -1.7173626321482398e-11 0.0
5.3470339838394305e-12 -1.9390420506193154e-11 0.0
7.604849167035634e-12 -2.5173610467062397e-11 0.0
3.6037712202699454e-12 -2.20497406298115e-11 0.0
4.1667250120796185e-5 -4.952699733480657e-5 0.0
7.26127845829119e-5 -8.446941111506005e-5 0.0
0.00010248146276443286 -0.0001147529424585887 0.0
0.00013085778102517174 -0.00014212784690701585 0.0
0.0001581636253034874 -0.00016752168509548757 0.0
0.00018494595687871626 -0.00019166958438870664 0.0
0.00021166003255210003 -0.00021462356485444278 0.0
0.00023805562371433797 -0.00023660428601350228 0.0
0.0002643845736016805 -0.0002578324895822925 0.0
0.00029072971628185944 -0.00027828849141092163 0.0
0.0003170988738481662 -0.00029817083103728006 0.0
0.0003437226669628986 -0.00031746112030773556 0.0
0.0003704040639831885 -0.0003361626868092076 0.0
0.0003972689569223006 -0.00035443391733925553 0.0
0.0004244907402744413 -0.00037220333309777483 0.0
0.00045178273248881024 -0.00038946699027161134 0.0
0.0004793476496478977 -0.00040633766374074655 0.0
0.0005071871255305518 -0.0004227094299419092 0.0
0.0005352712847530798 -0.00043868981133019934 0.0
0.0005636203286926136 -0.0004542691595186079 0.0
0.0005922692055024029 -0.00046944498732422874 0.0
0.0006211580784600259 -0.00048421091955116416 0.0
0.0006504699993520859 -0.000498624853347454 0.0
0.0006799051309000692 -0.0005126154474390497 0.0
0.0007098177076405511 -0.0005262415297528518 0.0
0.0007398276228652729 -0.0005394388255455535 0.0
0.0007702019103325516 -0.0005522832560412125 0.0
0.0008007991129035997 -0.000564687996939844 0.0
0.0008318141388230414 -0.0005767497713763986 0.0
0.0008629078189238607 -0.0005884146128586407 0.0
0.000894432697254334 -0.0005997198936131138 0.0
0.0009261695258772726 -0.0006105899571087636 0.0
0.000958213430582702 -0.0006211049118219707 0.0
0.000990433772717293 -0.0006312041112213317 0.0
0.0010230337649304085 -0.0006409402543503513 0.0
0.0010556987400712776 -0.0006502256515752805 0.0
0.0010886789632798934 -0.0006591148443461495 0.0
0.0011217872299145615 -0.0006674963564062682 0.0
0.0011551116428622906 -0.0006753913311430447 0.0
0.0011886232592774066 -0.0006829254816611918 0.0
0.0012222626371742732 -0.0006899177510055239 0.0
0.0012561828128970845 -0.0006965315837074922 0.0
0.0012902993610906098 -0.0007026489892630482 0.0
0.0013245357080355874 -0.000708394298900913 0.0
0.001358984451587272 -0.0007135946614539013 0.0
0.0013934228076186435 -0.000718397457429842 0.0
0.0014280873950471278 -0.0007227675927209171 0.0
0.0014627805176879447 -0.0007266508665438731 0.0
0.0014975699145559514 -0.0007301630630114314 0.0
0.001532519005131816 -0.000733183450800407 0.0
0.0015672245234930836 -0.0007356456046175662 0.0
0.0016022598123072045 -0.0007377516399025827 0.0
0.0016367647492097862 -0.0007392878667924959 0.0
0.0016717162571364122 -0.000740401957905137 0.0
0.0017057928590149007 -0.0007409532314259266 0.0
0.0017404366714842113 -0.0007411062885332374 0.0
0.0017738207870561782 -0.0007407215345715696 0.0
0.0018066476060693032 -0.0007390672427144553 0.0
0.0018397101251005094 -0.0007370765596804383 0.0
0.0018726936888496513 -0.0007342407563194376 0.0
0.0019050531401579274 -0.0007312228470100256 0.0
0.0019371304936934976 -0.0007273808050285456 0.0
0.001969410354877712 -0.0007230268715831616 0.0
0.002001034533675396 -0.0007171812072987061 0.0
0.00203324019527704 -0.0007106107408939603 0.0
0.002066072733359195 -0.000703344113020865 0.0
0.0020979879602174294 -0.0006950502135671566 0.0
0.002130203487305185 -0.0006860296558268587 0.0
0.002162870155980132 -0.0006760841894983053 0.0
0.0021957414075996252 -0.000665441169383435 0.0
0.002228321395709727 -0.000654102601468401 0.0
0.0022613284517075003 -0.0006418669565803636 0.0
0.0022940079753098353 -0.0006289731780408487 0.0
0.0023267434165592077 -0.0006156285512293886 0.0
0.0023597770675495566 -0.0006015323360634245 0.0
0.0023925355670169858 -0.0005869630716813252 0.0
0.002425355638763761 -0.0005718324786252396 0.0
0.0024580452952197756 -0.0005562104180264463 0.0
0.0024908659602047405 -0.000540071540646111 0.0
0.002523624749885448 -0.0005233686103024074 0.0
0.002556274761729493 -0.0005061533156069454 0.0
0.0025886361803449075 -0.0004884427052530362 0.0
0.002620960009736547 -0.0004702328301931786 0.0
0.0026532708095281625 -0.00045142944883995407 0.0
0.002685369720605869 -0.00043209455006928374 0.0
0.0027174414914030165 -0.0004122640646465881 0.0
0.002749632703367395 -0.00039173929028936145 0.0
0.0027816658851501407 -0.0003705579839657061 0.0
0.002813589425651647 -0.00034877042941332606 0.0
0.002845714954245073 -0.0003262171303472724 0.0
0.00287804596332979 -0.0003027581390442142 0.0
0.00291038579778685 -0.00027835949319740435 0.0
0.002942815156589086 -0.000253001027337784 0.0
0.0029755939391052856 -0.0002264082631985688 0.0
0.0030091427268732042 -0.0001982429870303151 0.0
0.003043036068419387 -0.0001682963109311064 0.0
0.0030776536979591515 -0.00013586405505812738 0.0
0.003114465257973888 -9.966280374239833e-5 0.0
0.0031523679705069856 -5.7882711150583536e-5 0.0
0.0031999999956749707 -2.2120747696921688e-11 0.0
0.0031999999910507335 -2.466526771778294e-11 0.0
0.003199999994243562 -1.5232868879293282e-11 0.0
0.0031999999942408214 -1.3223737408891262e-11 0.0
0.0031999999947427615 -1.0758838435730336e-11 0.0
0.0031999999949690787 -9.063917953899197e-12 0.0
0.00319999999506291 -7.834035127183502e-12 0.0
0.00319999999525063 -6.754335837248823e-12 0.0
0.0031999999953122287 -5.78013603919901e-12 0.0
0.0031999999954709065 -4.871065278956529e-12 0.0
0.0031999999956515623 -4.1494612369875296e-12 0.0
0.0031999999957621336 -3.2312680133623377e-12 0.0
0.0031999999958815134 -2.546599032529288e-12 0.0
0.0031999999960154687 -1.7241423521708506e-12 0.0
0.0031999999960956914 -9.284520570530475e-13 0.0
0.0031999999961336836 -4.16354656943391e-14 0.0
0.0031999999961967673 8.642238365399185e-13 0.0
0.0031999999958643114 1.936377308556525e-12 0.0
0.0031999999961862505 2.814814685157169e-12 0.0
0.003199999995596929 3.973081649581416e-12 0.0
0.003199999995636529 4.74960082012313e-12 0.0
0.0031999999954562897 5.569154489995003e-12 0.0
0.003199999995621075 5.770781972761567e-12 0.0
0.0031999999957692737 7.380989417495888e-12 0.0
0.003199999997793826 3.3355307091684635e-12 0.0
0.0029596924560499637 0.00013151111416789883 0.0
0.0027577709975985837 0.00019074717670939121 0.0
0.0025768376568380364 0.00020266974396385547 0.0
0.0024202120831277566 0.00019374666857313147 0.0
0.0023178627078412205 8.537462831514155e-5 0.0
0.002307753544326481 3.0884406647207895e-5 0.0
0.0022723242397974294 3.435306518931085e-6 0.0
0.0022246135128712076 2.2720559685960124e-6 0.0
0.0021679389088637394 1.4073232419011399e-5 0.0
0.0021084876932666308 2.7631969241010138e-5 0.0
0.0020473666473289263 4.040031519999755e-5 0.0
0.0019854700467205563 5.3122256562367045e-5 0.0
0.0019215632607740007 6.350152848432518e-5 0.0
0.0018551126127217194 7.114470743170888e-5 0.0
0.001782674444207526 7.609048456703474e-5 0.0
0.0016973408322086474 7.896267729478951e-5 0.0
0.001484018008511109 0.00011379218972247152 0.0
0.0014141242523652755 0.0001288825565179855 0.0
0.0013564570037152453 0.00013748914907941613 0.0
0.0013062426955931556 0.00014426960016461913 0.0
0.0012607668936535689 0.00015059425436942845 0.0
0.0012197356174945646 0.0001573337380086836 0.0
0.0011828982647255476 0.00016564231183830404 0.0
0.0011516226798149141 0.00017662962013586468 0.0
0.0011274196368275045 0.00019453162838360246 0.0
0.0011107238964857425 0.000220493642666275 0.0
0.001109199054084025 0.0002698368891021419 0.0
0.001108802052846953 0.00033910498233760504 0.0
0.0009941927521193053 0.0004623714872202465 0.0
0.000825093587717096 0.00044610534430277474 0.0
0.0005826166903560309 0.00036621937040626565 0.0
0.0003108043739475195 0.00023765746780158537 0.0
0.0008370816896522026 -0.000552926623673741 0.0
0.002221935663074801 -0.000619664927948715 0.0
0.0010648178687985193 -0.000628627835354719 0.0
0.0019899408533046296 -0.0006886824139655193 0.0
0.0013060934806180726 -0.0006811343622556902 0.0
0.0017534354026066802 -0.0007114020505960277 0.0
0.001513744487861141 -0.0007052732450123266 0.0
0.0024220174447775102 -0.0005426041619953055 0.0
0.0006599821045297587 -0.0004823410814211033 0.0
0.0025776221620467336 -0.00046344396358254905 0.0
0.0005152325308935743 -0.0004090224488392264 0.0
5.2213593509606136e-5 -9.363239469689106e-6 0.0
0.0031432129510383933 -6.959314517298565e-6 0.0
0.0017092379822249656 9.747256995307607e-5 0.0
0.00195511077277423 7.743699819809286e-5 0.0
0.0014565460346749298 0.00011419389895027606 0.0
0.0012639562500404824 0.00015987326146208586 0.0
0.00274205018028795 -0.00037167118612030077 0.0
0.0003828695414525985 -0.0003297353297562084 0.0
3.809061399677231e-5 -1.6151414245626796e-5 0.0
0.0031591827516059376 -1.1783927834075096e-5 0.0
0.0031203500375097783 2.884664290286389e-6 0.0
6.9033292044803e-5 2.2172021817841457e-6 0.0
0.002871269977443708 -0.00028403695122863545 0.0
0.0002720383939230077 -0.00024805761788270235 0.0
0.002130000388178625 4.798946107312848e-5 0.0
0.0011373160883516946 0.00018220878544781082 0.0
2.9339057597603056e-5 -1.6939181053628997e-5 0.0
0.0031675206446961546 -1.355581432903446e-5 0.0
0.0012041267162171292 -0.0006613888617660309 0.0
0.0014086292608665421 -0.0006953810630699359 0.0
0.0018910009616083534 -0.0007028995599504661 0.0
0.0016213770594547606 -0.0007094739683676368 0.0
0.0020883977872219787 -0.0006643958527403804 0.0
0.002315045618805906 -0.0005887033380918218 0.0
0.000974028733405034 -0.0006019896530078551 0.0
0.000749011829643117 -0.0005225710570492052 0.0
0.002964880050863619 -0.00021370611781402956 0.0
0.00019119350444528124 -0.00018367076966628232 0.0
0.003098444415089064 1.870159586913061e-5 0.0
8.947038813539971e-5 1.3434901548767363e-5 0.0
0.0031731496499089284 -1.6283874300213566e-5 0.0
2.769934038023703e-5 -2.0380950012045175e-5 0.0
0.0022441448152633104 2.7873255995035488e-5 0.0
0.0010732209684788472 0.00021273340077921632 0.0
0.003056382726836724 3.402582465860525e-5 0.0
0.00012970604676093602 2.7111770473065904e-5 0.0
4.500089628714502e-5 -1.3917909635746971e-5 0.0
0.0031509250574225894 -1.0257666732125976e-5 0.0
0.0018319890668116127 9.221006801527894e-5 0.0
0.0013590577537354708 0.0001459767056298035 0.0
0.00010676051818739833 -0.0001058753050369928 0.0
0.0030744231948397188 -0.00012040658171428007 0.0
0.0021518236049558343 -0.0006481851721768705 0.0
0.0016880215832084818 -0.000712560874581634 0.0
0.0011386865699133917 -0.0006465125848216753 0.0
0.0009040995054539084 -0.000580833193951237 0.0
0.0018249253687421874 -0.000708319725014911 0.0
0.00248224628204555 -0.0005142846938392595 0.0
0.0006018882324523146 -0.0004535755179063923 0.0
0.002645578530852767 -0.0004285949295484223 0.0
0.0004564194514629616 -0.0003740653675530654 0.0
0.00032449200103584134 -0.0002879842201786076 0.0
0.0028066752675624503 -0.0003288432657242715 0.0
0.000685557109331802 0.00023578416821053933 0.0
0.0026476362132048853 0.00012437155039129522 0.0
0.003173424409956769 -2.1088737386366315e-5 0.0
2.4168435803356144e-5 -2.09559664492126e-5 0.0
0.0010476877870039978 0.00029187109092496886 0.0
0.002338959490707537 6.275466306448619e-5 0.0
0.00015311092071132023 4.317756407239399e-5 0.0
0.0030527006263688585 3.947356828838797e-5 0.0
4.693204083121815e-5 -4.725896991230828e-5 0.0
0.0031444890072596953 -5.42859042663457e-5 0.0
0.0024880590584073375 0.00012310852791792455 0.0
0.0025265633979866266 0.00010658227373285068 0.0
0.0027249838996212835 9.616983644369604e-5 0.0
0.002606414389544667 0.00010344674734362227 0.0
0.0024515666055462374 9.905030798670201e-5 0.0
0.0025041331510844917 0.00011073904930840535 0.0
0.002654340313052428 0.0001031256732035171 0.0
0.002559647780056781 0.00011292366929245165 0.0
0.0027023435986315513 9.745357361019673e-5 0.0
0.002615974413496478 0.00010519728142697058 0.0
0.0024824418446021557 0.00011858584359593522 0.0
0.002534984663221388 0.00010844832927015536 0.0
0.0024206402228427217 0.00011958183106102397 0.0
0.002463850778359099 0.00010705935667926634 0.0
0.0023605977846410295 0.00011704532466671727 0.0
0.0023998839447062093 0.00010108878292344643 0.0
0.0016697580154286364 6.211712695674403e-5 0.0
0.0015757889148711327 4.684779181402417e-5 0.0
0.001646612923172524 3.9654366422576373e-5 0.0
0.001570361414412475 2.859762315494906e-5 0.0
0.0016326073043889107 2.25185598327084e-5 0.0
0.0015669021130330263 1.4036319955100902e-5 0.0
0.0016232948313146941 8.313879409702616e-6 0.0
0.0015636975184000756 8.66058105387615e-7 0.0
0.0016163362334512845 -4.468151062154604e-6 0.0
0.0015608958807400417 -1.1337095230068462e-5 0.0
0.0016109071162762128 -1.629703185388304e-5 0.0
0.0015584962677255953 -2.284531630558007e-5 0.0
0.0016065321216299278 -2.7898311471529595e-5 0.0
0.0015577227393739632 -3.410176875304857e-5 0.0
0.0016029512834710338 -3.913633700017972e-5 0.0
0.0015558149364499135 -4.5223298656083985e-5 0.0
0.0015996399533284428 -5.017644163444195e-5 0.0
0.0015525002588658598 -5.622803889968679e-5 0.0
0.0015963858204870735 -6.118756515639274e-5 0.0
0.0015503660781503354 -6.714706899796979e-5 0.0
0.0015935411517130707 -7.222398591473405e-5 0.0
0.0015484636870538217 -7.811806564049227e-5 0.0
0.001589473322039741 -8.325519429330612e-5 0.0
0.001546325170824755 -8.919926067280677e-5 0.0
0.0015866810686754643 -9.440439859843234e-5 0.0
0.00154502451176281 -0.00010011594032563555 0.0
0.0015841600191774698 -0.00010567119932906211 0.0
0.0015410372223041671 -0.00011075443482116599 0.0
0.001581191788030301 -0.000117055739555858 0.0
0.001529012683611586 -0.00012242211632833758 0.0
0.001580983291495297 -0.0001288205465670975 0.0
0.0015367760479316614 -0.00013484374083062379 0.0
0.0015782070264132233 -0.00014069634797708017 0.0
0.001536284655031446 -0.00014699149863511423 0.0
0.00157610493247347 -0.0001529179962211812 0.0
0.001536960553921979 -0.00015926733038654217 0.0
0.0015738319555734471 -0.00016535856089815328 0.0
0.0015356543158707632 -0.0001720218495404029 0.0
0.001511458027302281 -4.539976075205919e-6 0.0
0.0015715220231829936 -0.0001781530250012638 0.0
0.0015063569456050141 -6.145401485595444e-5 0.0
0.0014893419236058929 -0.00013214162838158828 0.0
0.0015312820450258558 -0.0001849412201065365 0.0
0.001568910727330662 -0.00019127540503971764 0.0
0.0015269459244093109 -0.00019866228491897974 0.0
0.0014900324139063249 -0.00019104944279663776 0.0
0.0014846432923216134 -0.00020541441072588186 0.0
0.0015647016004173757 -0.00020555241661900762 0.0
0.0016072354202111882 -0.00019764723496779412 0.0
0.0016185063477305887 -0.00013394868388428723 0.0
0.0016032751413032982 -0.00021235050134943076 0.0
0.0016484741607436383 -0.00020299205885933812 0.0
0.0016430007003365968 -0.00021908877742673864 0.0
0.001448153147473003 -0.00019740742260285384 0.0
0.0014442911550696547 -0.0002114445018321456 0.0
0.0016896380920753632 -0.0002089082324019911 0.0
0.00140547366729922 -0.0002029806613620843 0.0
0.0014040017968551522 -0.000217647923177701 0.0
0.0016849283855438766 -0.00022521132839344664 0.0
0.0017300963792037545 -0.00021577621557279387 0.0
0.001362507780427561 -0.00020858160817469003 0.0
0.001360041189739736 -0.00022363954516179952 0.0
0.0017263613448628445 -0.00023198516865556798 0.0
0.0017728319329366128 -0.00022197451633422958 0.0
0.0013197408333868064 -0.00021408819176505585 0.0
0.001316873127506434 -0.0002299887521849612 0.0
0.0017689300790224578 -0.00023903625457203924 0.0
0.0018167008315590925 -0.0002280396160037473 0.0
0.001277363840061272 -0.00021868137185418395 0.0
0.0012717141555858658 -0.00023501425322329885 0.0
0.0018133346321744695 -0.0002455399121558667 0.0
0.0018614157703323825 -0.00023391130801439711 0.0
0.0012308439530869892 -0.00022318792114178767 0.0
0.001226325348688556 -0.00024036598149682487 0.0
0.0011830288286811604 -0.00022859477422514503 0.0
0.001187434788475113 -0.0002104366921709712 0.0
0.0017611751271204158 -0.00025587739213206467 0.0
0.0018577658520312545 -0.0002521172825395326 0.0
0.0019068551863406552 -0.0002396411618879979 0.0
0.0019113058281022665 -0.0002209110738553852 0.0
0.0016317603902799573 -7.768305298676395e-5 0.0
0.0019586399385504395 -0.00022624919888088405 0.0
0.0019635121851387704 -0.00020677457685571392 0.0
0.0020124413133814764 -0.0002114352655559392 0.0
0.0011822189962155591 -0.0002470691772379481 0.0
0.0011370340567792125 -0.0002332713601792073 0.0
0.001224743077316855 -0.0002587837239442786 0.0
0.0019017228602894378 -0.0002588295013464004 0.0
0.001136852311308086 -0.0002521575133683473 0.0
0.001091149304877127 -0.00023727107308353475 0.0
0.0016527505586728477 -3.1953653772044805e-5 0.0
0.0010909237309344518 -0.00025568700405658454 0.0
0.001045275257661432 -0.0002405128525357295 0.0
0.001045283118517618 -0.0002593034449947483 0.0
0.0010002655896509025 -0.0002427184813178706 0.0
0.0009992889346415682 -0.0002244131657703352 0.0
0.0009515612458256722 -0.00022704901674621973 0.0
0.0009513386402365688 -0.00020773341936267313 0.0
0.000994977391414299 -0.0002611553617732977 0.0
0.0009000613808753088 -0.00021047774319707556 0.0
0.0008994876522976801 -0.00019070523908508216 0.0
0.0010457820274951434 -0.0002791412011134573 0.0
0.0010030485089373591 -0.00028255367789822524 0.0
0.0008494102383894726 -0.00019185641693518802 0.0
0.0008471213858069795 -0.0001725311677307418 0.0
0.0020187039742908886 -0.00019167028162508272 0.0
0.0020696688806927724 -0.00019599553364949517 0.0
0.0010462942059338847 -0.000299207649570217 0.0
0.0010041792301420933 -0.00030243569802818613 0.0
0.0020765486601473666 -0.00017557113213507956 0.0
0.0021300291359521153 -0.00017997494527123204 0.0
0.0021207246639336355 -0.00020239597804992974 0.0
0.0021815597769614292 -0.00018510246825412499 0.0
0.002173068099143693 -0.00020801430985553236 0.0
0.0022340273176497173 -0.00018891634549527615 0.0
0.0022283829008115704 -0.0002115553774268868 0.0
0.002291462417111185 -0.00019003464122844778 0.0
0.0022804467486553623 -0.0002132269853976184 0.0
0.00229705799139789 -0.00016832438546664395 0.0
0.002344397125158876 -0.00019196788502795487 0.0
0.0023299611765766727 -0.00021508903322622251 0.0
0.0010473997463954698 -0.00031964348733750026 0.0
0.0007943356323419635 -0.00017309601923119606 0.0
0.0007910209414154348 -0.00015338972699097337 0.0
0.002271188675496281 -0.00023695993777589317 0.0
0.002318556106807061 -0.0002384172019088993 0.0
0.0023763562856771877 -0.00021614001716089198 0.0
0.002263852646327719 -0.0002610734482505781 0.0
0.0010063499275347837 -0.00032295298550294395 0.0
0.0023648080718480955 -0.00023901479044403823 0.0
0.002421380327066329 -0.00021610179753633877 0.0
0.0010484991791839086 -0.0003406476399052347 0.0