# vtk DataFile Version 2.0
phase field modeling fracture
ASCII
DATASET UNSTRUCTURED_GRID
POINTS 2538 float
0.0 0.0 0.0
10.0 0.0 0.0
0.0 10.0 0.0
10.0 10.0 0.0
0.0 4.9995 0.0
0.0 5.0005 0.0
5.0 5.0 0.0
0.9416964895726688 0.0 0.0
1.803581725054446 0.0 0.0
2.592419885431098 0.0 0.0
3.314401822861676 0.0 0.0
3.975193910351406 0.0 0.0
4.579982132660152 0.0 0.0
5.133512780936812 0.0 0.0
5.640130319506143 0.0 0.0
6.103810708661955 0.0 0.0
6.528192895506818 0.0 0.0
6.916607540127679 0.0 0.0
7.272102969376355 0.0 0.0
7.597469242948583 0.0 0.0
7.895259826292669 0.0 0.0
8.167811885738017 0.0 0.0
8.417264413845215 0.0 0.0
8.645575169389538 0.0 0.0
8.854535961159101 0.0 0.0
9.045786767735546 0.0 0.0
9.220828555767493 0.0 0.0
9.38103509633881 0.0 0.0
9.527663687265145 0.0 0.0
9.661865124984566 0.0 0.0
9.784692609918062 0.0 0.0
9.897110148790482 0.0 0.0
10.0 0.09999999999992584 0.0
10.0 0.199999999999856 0.0
10.0 0.2999999999997771 0.0
10.0 0.3999999999996677 0.0
10.0 0.4999999999995511 0.0
10.0 0.5999999999994683 0.0
10.0 0.6999999999993983 0.0
10.0 0.7999999999993286 0.0
10.0 0.8999999999992587 0.0
10.0 0.9999999999991888 0.0
10.0 1.099999999999119 0.0
10.0 1.199999999999033 0.0
10.0 1.299999999998852 0.0
10.0 1.399999999998576 0.0
10.0 1.499999999998284 0.0
10.0 1.599999999997992 0.0
10.0 1.6999999999977 0.0
10.0 1.799999999997408 0.0
10.0 1.899999999997116 0.0
10.0 1.999999999996825 0.0
10.0 2.099999999996533 0.0
10.0 2.199999999996241 0.0
10.0 2.299999999995949 0.0
10.0 2.399999999995657 0.0
10.0 2.499999999995365 0.0
10.0 2.599999999995073 0.0
10.0 2.699999999994782 0.0
10.0 2.79999999999449 0.0
10.0 2.899999999994198 0.0
10.0 2.999999999993906 0.0
10.0 3.099999999993614 0.0
10.0 3.199999999993322 0.0
10.0 3.299999999993029 0.0
10.0 3.399999999992738 0.0
10.0 3.499999999992446 0.0
10.0 3.599999999992154 0.0
10.0 3.699999999991863 0.0
10.0 3.799999999991571 0.0
10.0 3.899999999991278 0.0
10.0 3.999999999991022 0.0
10.0 4.099999999991035 0.0
10.0 4.199999999991187 0.0
10.0 4.299999999991338 0.0
10.0 4.399999999991491 0.0
10.0 4.499999999991642 0.0
10.0 4.599999999991795 0.0
10.0 4.699999999991947 0.0
10.0 4.799999999992099 0.0
10.0 4.89999999999225 0.0
10.0 4.999999999992403 0.0
10.0 5.099999999992555 0.0
10.0 5.199999999992706 0.0
10.0 5.299999999992858 0.0
10.0 5.39999999999301 0.0
10.0 5.499999999993161 0.0
10.0 5.599999999993313 0.0
10.0 5.699999999993466 0.0
10.0 5.799999999993618 0.0
10.0 5.899999999993771 0.0
10.0 5.999999999993922 0.0
10.0 6.099999999994074 0.0
10.0 6.199999999994227 0.0
10.0 6.299999999994378 0.0
10.0 6.39999999999453 0.0
10.0 6.499999999994682 0.0
10.0 6.599999999994833 0.0
10.0 6.699999999994986 0.0
10.0 6.799999999995138 0.0
10.0 6.899999999995289 0.0
10.0 6.999999999995442 0.0
10.0 7.099999999995594 0.0
10.0 7.199999999995747 0.0
10.0 7.299999999995897 0.0
10.0 7.39999999999605 0.0
10.0 7.499999999996202 0.0
10.0 7.599999999996353 0.0
10.0 7.699999999996505 0.0
10.0 7.799999999996658 0.0
10.0 7.899999999996808 0.0
10.0 7.999999999996962 0.0
10.0 8.099999999997113 0.0
10.0 8.199999999997265 0.0
10.0 8.299999999997418 0.0
10.0 8.399999999997569 0.0
10.0 8.499999999997721 0.0
10.0 8.599999999997873 0.0
10.0 8.699999999998024 0.0
10.0 8.799999999998176 0.0
10.0 8.899999999998329 0.0
10.0 8.99999999999848 0.0
10.0 9.099999999998634 0.0
10.0 9.199999999998786 0.0
10.0 9.299999999998937 0.0
10.0 9.399999999999089 0.0
10.0 9.499999999999241 0.0
10.0 9.599999999999392 0.0
10.0 9.699999999999545 0.0
10.0 9.799999999999697 0.0
10.0 9.899999999999848 0.0
9.897110148790565 10.0 0.0
9.784692609918244 10.0 0.0
9.66186512498486 10.0 0.0
9.527663687265571 10.0 0.0
9.381035096339392 10.0 0.0
9.220828555768257 10.0 0.0
9.045786767736512 10.0 0.0
8.854535961160305 10.0 0.0
8.645575169391027 10.0 0.0
8.417264413847017 10.0 0.0
8.167811885740178 10.0 0.0
7.895259826295246 10.0 0.0
7.597469242951631 10.0 0.0
7.272102969379938 10.0 0.0
6.916607540131873 10.0 0.0
6.528192895511704 10.0 0.0
6.103810708667616 10.0 0.0
5.640130319512691 10.0 0.0
5.13351278094435 10.0 0.0
4.579982132668816 10.0 0.0
3.975193910361222 10.0 0.0
3.314401822869852 10.0 0.0
2.592419885437257 10.0 0.0
1.803581725058137 10.0 0.0
0.9416964895740705 10.0 0.0
0.0 9.00010000000243 0.0
0.0 8.000200000005481 0.0
0.0 7.000300000005135 0.0
0.0 6.000400000002569 0.0
0.901790731451151 5.000409820926855 0.0
1.657200899774397 5.000334279910023 0.0
2.289991063707192 5.000271000893629 0.0
2.820065163538221 5.000217993483646 0.0
3.264096435579811 5.000173590356442 0.0
3.636051481595835 5.00013639485184 0.0
3.947629914072366 5.000105237008593 0.0
4.208632181002628 5.0000791367819 0.0
4.427267949625672 5.000057273205037 0.0
4.610414277633563 5.000038958572237 0.0
4.763831845154243 5.000023616815485 0.0
4.892346298799659 5.00001076537012 0.0
4.892346298799748 4.99998923462988 0.0
4.763831845154455 4.999976383184515 0.0
4.610414277633943 4.999961041427763 0.0
4.427267949626277 4.999942726794963 0.0
4.208632181003523 4.9999208632181 0.0
3.94762991407365 4.999894762991407 0.0
3.636051481597624 4.99986360514816 0.0
3.264096435582253 4.999826409643559 0.0
2.820065163541503 4.999782006516354 0.0
2.289991063711534 4.999728999106371 0.0
1.657200899778495 4.999665720089978 0.0
0.9017907314530094 4.999590179073145 0.0
0.0 3.999600000002013 0.0
0.0 2.999700000005187 0.0
0.0 1.99980000000512 0.0
0.0 0.9999000000025537 0.0
9.897889398521345 2.93573355845387 0.0
9.906568249974548 7.060009441434234 0.0
9.913122631074113 3.64016132281653 0.0
9.922462129543863 6.354535290629151 0.0
9.917693659967533 4.354211663134567 0.0
9.909873057440208 5.637584487339942 0.0
9.914183254994697 4.950672966925282 0.0
9.913885043715895 7.666887930262611 0.0
9.91009668007573 2.351889069770817 0.0
9.905135696074536 8.138152454502785 0.0
9.913397459621809 1.849999999997262 0.0
7.099302372137626 0.297750452375005 0.0
7.095143729410097 9.700359990366296 0.0
4.942912558701401 5.095838627899509 0.0
4.315009232304429 5.165022115481685 0.0
4.946182472483878 4.906763777264103 0.0
4.317967462990024 4.825955043772673 0.0
9.916390871492647 8.64999999999792 0.0
9.921504649680616 1.368376469890358 0.0
8.292538149791614 0.206877570318844 0.0
8.292538149793597 9.793122429681448 0.0
5.884594439766573 9.587645267048616 0.0
5.794826292691579 0.3794853783929359 0.0
9.913397459621425 9.049999999998557 0.0
9.908526577714177 0.9568239351922434 0.0
3.456851160380649 5.315740054130451 0.0
3.457889657868442 4.707121019609468 0.0
8.945214200703926 0.1503383337970344 0.0
8.950161364448409 9.8413906539257 0.0
9.913862335499305 4.055887885208452 0.0
9.916697353372683 4.650158482607802 0.0
9.919076340414442 6.049999999994006 0.0
9.906994308667635 5.25749687748192 0.0
9.917490342358025 6.655979201891897 0.0
9.915757520293784 7.343848891656911 0.0
9.910049507471042 3.363474386285078 0.0
9.914471988502868 2.647400064832979 0.0
9.91474124160965 9.337490423485129 0.0
9.916971008170838 0.6499999999994355 0.0
4.307157269264427 9.509674045029644 0.0
4.331527375865619 0.4401616696422582 0.0
9.45434939180249 9.878397030523757 0.0
9.457696120412969 0.1270877537061785 0.0
2.555070293622606 5.422044496190925 0.0
2.566232917480916 4.608001224030952 0.0
3.026511860837692 9.332320638257093 0.0
2.945561971800619 0.5895662714727601 0.0
7.7395404387124 0.2511088946967771 0.0
7.736379255744154 9.745848826372828 0.0
4.687135269408529 5.122111433928926 0.0
4.688420821504113 4.871895064967488 0.0
9.910554884115975 0.3448356354522978 0.0
9.911230082250466 9.65764729394159 0.0
9.921953841410854 6.851023993342036 0.0
9.912065178606017 5.448170483544033 0.0
9.911660025326261 3.861846960030188 0.0
9.914847467973438 3.14501593945607 0.0
9.913397459621425 5.849999999993703 0.0
9.913397459621425 7.849999999996735 0.0
9.906916878988277 2.15455769998631 0.0
9.913397459621425 8.349999999997479 0.0
9.909472363117661 1.640528221515488 0.0
9.913987325695956 1.152857110636247 0.0
9.913397459621425 8.849999999998241 0.0
0.9100099990995943 2.614215977520411 0.0
0.8395284981715456 7.451196254860987 0.0
9.723278867451556 9.898135916635193 0.0
9.723316350887044 0.09841820909386662 0.0
1.385819164827588 4.454539963646463 0.0
1.338343629665047 5.523111536005823 0.0
1.377179700550677 0.6809168304959698 0.0
1.418060461092743 9.285896715136046 0.0
9.91268220142518 0.1457914080939694 0.0
9.906737126737994 9.845745933882352 0.0
0.7108351382691361 6.537941170074089 0.0
1.527735020267026 6.915620208855231 0.0
1.630993885659103 7.838271825205868 0.0
2.232760943566823 7.370850737296832 0.0
2.243414218068206 6.688299277952821 0.0
2.779655053105118 7.021588754814074 0.0
2.80227799359795 7.632420170547022 0.0
3.282022065908813 7.305859666021318 0.0
3.327597298795347 7.857554136825748 0.0
3.743210251018715 7.549183328204379 0.0
3.716353232200752 7.062036086888612 0.0
4.111978858674101 7.27497101169417 0.0
4.104192177581432 6.879858986267289 0.0
4.436230765617037 7.045693351607117 0.0
4.430360014817357 6.703971783962796 0.0
4.732390145036301 6.849841042423394 0.0
5.056161327708878 5.095276573498806 0.0
5.111586796021131 4.999081142133581 0.0
5.169267363407189 5.09444870412406 0.0
5.223795108752053 4.996986220359468 0.0
5.281480803887719 5.092780870372803 0.0
5.335670761900611 4.994887492556936 0.0
5.393485214772442 5.090486192743301 0.0
5.447323082877892 4.992601527033996 0.0
5.505243219343024 5.087953380710069 0.0
5.558739102026105 4.990287787962959 0.0
5.616491581184779 5.085335255235766 0.0
5.669852346908056 4.9879269227514 0.0
5.727502713908907 5.082679981817038 0.0
5.780766004135139 4.988313988715834 0.0
5.838244881129535 5.080480568766611 0.0
5.891357695677371 4.986433849408193 0.0
5.948696036767613 5.077969900389505 0.0
6.001601341641615 4.981313698556656 0.0
6.058851024265095 5.074871552128682 0.0
6.111614020704875 4.978360695880202 0.0
6.168801161530775 5.072044953270978 0.0
6.221368818778567 4.975825765213497 0.0
6.278268309066882 5.066182320461055 0.0
6.330814273567539 4.972837984645718 0.0
6.387565032421376 5.062889771971895 0.0
6.437476667631405 4.971693683589553 0.0
[...]
POINT_DATA 2538
VECTORS disp float
1.4690142856488304e-12 1.4711801479495078e-12 0.0
3.167002932072579e-13 -9.96738783316407e-13 0.0
0.0003000000000774395 3.024956744275388e-13 0.0
0.0002999999932656643 -6.563048180785528e-12 0.0
0.00015128513496239786 5.6177644476438146e-5 0.0
0.00020851411896943313 4.301983835220076e-6 0.0
0.00018233675783887196 -1.3648070936244715e-6 0.0
-2.2759331778031253e-13 -1.937245747051379e-13 0.0
9.495382948753283e-14 1.0217558804161794e-13 0.0
7.646870736366228e-14 -6.258308104130443e-14 0.0
7.018280865330814e-14 1.2602680370599073e-14 0.0
4.01369621309733e-14 -1.0127801084415789e-13 0.0
3.808537478818914e-14 -2.2888168048959397e-13 0.0
8.819634773861611e-15 -2.8779827903866346e-13 0.0
1.1727286916255038e-15 -2.5970075091152857e-13 0.0
3.955546577592065e-14 -2.544519200524111e-13 0.0
-1.3171048102303805e-15 -2.8744711734544243e-13 0.0
3.925128679460489e-15 -2.9496826338970496e-13 0.0
-2.0395937879043253e-15 -2.969015818679897e-13 0.0
2.1260902235529472e-15 -2.963567381037736e-13 0.0
-7.613573073139828e-15 -3.3264410904307523e-13 0.0
1.8356675797883836e-14 -3.6817973515686466e-13 0.0
5.790469387079958e-15 -3.544502994265134e-13 0.0
7.023423476389838e-15 -3.304214850619712e-13 0.0
4.228419476172766e-14 -2.6387240563795333e-13 0.0
9.290156108834937e-15 -2.4926636903925324e-13 0.0
1.069826807420028e-14 -2.583167601047181e-13 0.0
2.3889641405529373e-14 -2.480324248728882e-13 0.0
2.41712505873995e-14 -2.433094298172803e-13 0.0
-8.899180982062333e-16 -2.6111532114094206e-13 0.0
6.44996626088395e-14 -2.5505223202088895e-13 0.0
-7.719664596664526e-14 -8.216719065096981e-15 0.0
5.418825976875563e-6 -1.331448791088415e-6 0.0
8.35646728975068e-6 -2.4469373738113514e-6 0.0
1.1072375860794953e-5 -3.3458824482502892e-6 0.0
1.3447144359696863e-5 -4.2521850958473976e-6 0.0
1.5543672143154106e-5 -5.179023754592112e-6 0.0
1.752731859763662e-5 -6.171021361840665e-6 0.0
1.949191472586979e-5 -7.16342707544475e-6 0.0
2.1389458812923897e-5 -8.189759795818305e-6 0.0
2.3270309720192234e-5 -9.253533486025326e-6 0.0
2.5147921595524838e-5 -1.0324010163092478e-5 0.0
2.703272178484999e-5 -1.142600688195519e-5 0.0
2.894081978470024e-5 -1.2539719072521172e-5 0.0
3.085015247573664e-5 -1.3664229253751667e-5 0.0
3.28110528012325e-5 -1.4826280865939362e-5 0.0
3.4811328879257746e-5 -1.6012652421957044e-5 0.0
3.682168441988678e-5 -1.720938246919754e-5 0.0
3.8885557902777976e-5 -1.8402377020650564e-5 0.0
4.097843877353274e-5 -1.957722041100851e-5 0.0
4.310733763868374e-5 -2.0760673247000803e-5 0.0
4.53057609519707e-5 -2.1949434806594615e-5 0.0
4.756084309896287e-5 -2.3138259223521427e-5 0.0
4.986256941211027e-5 -2.433280978699673e-5 0.0
5.222348816234131e-5 -2.555286540211808e-5 0.0
5.4636511037411834e-5 -2.6748021560442e-5 0.0
5.7141552741941655e-5 -2.7945115106550154e-5 0.0
5.968629751662118e-5 -2.9111515166563732e-5 0.0
6.227892298871785e-5 -3.0257123679278162e-5 0.0
6.49543376634614e-5 -3.135861725340322e-5 0.0
6.77073251116364e-5 -3.248054003860168e-5 0.0
7.051299031362079e-5 -3.3565770149854204e-5 0.0
7.342280251762553e-5 -3.461290887275102e-5 0.0
7.635374460730777e-5 -3.561912088133592e-5 0.0
7.935082506785876e-5 -3.658708750160501e-5 0.0
8.246332339392312e-5 -3.752306519948948e-5 0.0
8.565333739234605e-5 -3.849163603488893e-5 0.0
8.887289726821914e-5 -3.9429854003717154e-5 0.0
9.2196758270987e-5 -4.034411034723662e-5 0.0
9.557639140842522e-5 -4.125735132234716e-5 0.0
9.900869559915676e-5 -4.2159420173032124e-5 0.0
0.00010258675297015404 -4.31349902074303e-5 0.0
0.00010629462578509426 -4.4060902107904024e-5 0.0
0.00011034871546257793 -4.49112761610499e-5 0.0
0.00011521999156053078 -4.53107850556418e-5 0.0
0.00012051126115387743 -4.648989323923097e-5 0.0
0.00012588166971113507 -4.757529615325357e-5 0.0
0.00013158438667243324 -4.830750587274504e-5 0.0
0.00013745727733604788 -4.859041194958133e-5 0.0
0.0001433036598063633 -4.837219218107737e-5 0.0
0.00014904245553576392 -4.8119156311428636e-5 0.0
0.00015435091915517676 -4.774822225343067e-5 0.0
0.00015887963420554264 -4.7223102072567756e-5 0.0
0.00016303373698397394 -4.642013031944946e-5 0.0
0.00016681957186307075 -4.571544116233344e-5 0.0
0.00017049171289909947 -4.4998664048820006e-5 0.0
0.00017404773010571084 -4.439653822714505e-5 0.0
0.00017745538368858218 -4.385686244018191e-5 0.0
0.00018083437486226216 -4.3404195581285765e-5 0.0
0.0001840692990629969 -4.3012829487358447e-5 0.0
0.00018716839521761163 -4.265576560061391e-5 0.0
0.00019015945468290105 -4.2328002448588165e-5 0.0
0.00019303129215863127 -4.205345294282428e-5 0.0
0.0001958116682316363 -4.1858872916132306e-5 0.0
0.0001984790649773723 -4.173854739555984e-5 0.0
0.00020104266982463474 -4.169240387759058e-5 0.0
0.00020349449976745092 -4.170668497801852e-5 0.0
0.00020586342313577406 -4.179332481766839e-5 0.0
0.00020819770347123176 -4.193141771176817e-5 0.0
0.0002105631285019664 -4.209998721942841e-5 0.0
0.0002129862360842144 -4.2277188353763076e-5 0.0
0.0002154512973331631 -4.244639725912068e-5 0.0
0.0002179399600023568 -4.2594484051991895e-5 0.0
0.00022045933554888203 -4.272906163364646e-5 0.0
0.00022294191197221134 -4.2831829753439565e-5 0.0
0.000225408667089614 -4.290329167303606e-5 0.0
0.000227847457287854 -4.293540725784788e-5 0.0
0.0002302007835061107 -4.292082991679072e-5 0.0
0.0002325347116760706 -4.286799925552156e-5 0.0
0.0002348031794298944 -4.276843400745054e-5 0.0
0.00023704438239709774 -4.2635706864872476e-5 0.0
0.00023920078915764384 -4.240885043929481e-5 0.0
0.00024134066820898043 -4.214479005805698e-5 0.0
0.0002433900524874938 -4.1818940771745376e-5 0.0
0.00024541634981740446 -4.143644919627024e-5 0.0
0.00024742241190468995 -4.097743815151375e-5 0.0
0.00024936233978768653 -4.0435235755499895e-5 0.0
0.00025126941969191467 -3.982702110560652e-5 0.0
0.0002531688328441778 -3.910023617960309e-5 0.0
0.00025500025477167887 -3.828518216184397e-5 0.0
0.00025686120090968607 -3.738335471368631e-5 0.0
0.00025877533757044435 -3.63533486477675e-5 0.0
0.00026067952869865136 -3.514447942050004e-5 0.0
0.0002625019886252663 -3.376254489603309e-5 0.0
0.00026441935756579154 -3.23129184722941e-5 0.0
0.00026642827194454976 -3.0803232667752174e-5 0.0
0.0002686311986627956 -2.9167837520804845e-5 0.0
0.0002710811412798605 -2.6958494426853688e-5 0.0
0.0002741028587140401 -2.374406508559859e-5 0.0
0.0002790916108504682 -1.996925565075973e-5 0.0
0.00028527586262131214 -1.3144494891437605e-5 0.0
0.0003000000015989949 7.230268706139718e-13 0.0
0.00029999999920411844 -6.996708421531184e-13 0.0
0.0002999999998183401 -1.7817096984508877e-13 0.0
0.0002999999996919747 -3.4239149000817557e-13 0.0
0.00029999999978963987 -2.482904911925751e-13 0.0
0.00029999999979746114 -1.7101906729237334e-13 0.0
0.0002999999998278665 -8.930791708941971e-14 0.0
0.00029999999986502114 2.4006852761359272e-14 0.0
0.00029999999988700415 1.444857787136114e-13 0.0
0.00029999999990449765 2.7235881844923027e-13 0.0
0.0002999999999779479 3.291148291885848e-13 0.0
0.0002999999999378803 3.6083164005228216e-13 0.0
0.0002999999999858606 3.243390049278831e-13 0.0
0.0002999999999835617 3.058492072588071e-13 0.0
0.00029999999998662965 2.921625221965316e-13 0.0
0.00029999999998718546 2.9132023130635344e-13 0.0
0.00029999999998353913 2.845106277736504e-13 0.0
0.0002999999999753132 2.9783959097400644e-13 0.0
0.00029999999995341674 2.560376089964527e-13 0.0
0.0002999999999517795 1.8035247518283266e-13 0.0
0.0002999999999539365 9.26328790167788e-14 0.0
0.0002999999999430407 5.852013431327759e-14 0.0
0.0002999999999701049 7.552664602181734e-14 0.0
0.0002999999999485079 8.166622788371658e-14 0.0
0.00029999999993040677 2.0669194019747405e-14 0.0
0.00027558665423621466 4.717477537907996e-6 0.0
0.0002500576739613054 6.5826436924796485e-6 0.0
0.00022744961916736778 6.545869575327007e-6 0.0
0.00021569661559671033 4.603948165555662e-6 0.0
0.00020939487414145492 -9.83455556724519e-7 0.0
0.00020942310751749347 -3.82982712814569e-6 0.0
0.0002090229391783318 -7.483369950286956e-6 0.0
0.00020790836579652827 -1.00244281114421e-5 0.0
0.0002065991820920192 -1.1328414649384107e-5 0.0
0.000204986328202723 -1.1804188061519368e-5 0.0
0.00020338308813715509 -1.115755003142811e-5 0.0
0.00020222920915896646 -8.595643140102418e-6 0.0
0.00020030872576341427 -6.150627713768143e-6 0.0
0.00019766339798886788 -3.739486454787897e-6 0.0
0.0001946896276803028 -2.026486119753639e-6 0.0
0.0001897600336534956 -1.851903940126774e-6 0.0
0.0001784471674136748 9.108126612160755e-8 0.0
0.00017447132561644694 1.744918416958322e-6 0.0
0.0001700150268223401 3.198782348363641e-6 0.0
0.0001655375370181581 4.966922662797283e-6 0.0
0.00016092055874909527 6.853351403053692e-6 0.0
0.00015676163054705153 8.991827864009617e-6 0.0
0.00015271395548347295 1.0850376249069125e-5 0.0
0.00014931216196454594 1.1515133734966444e-5 0.0
0.0001474561409675393 1.2431917960809823e-5 0.0
0.0001469038884624798 1.3623718784165087e-5 0.0
0.0001482059150533107 1.8973382692302292e-5 0.0
0.00015000035840142983 3.351980228550798e-5 0.0
0.00012100604706742746 5.964369771903464e-5 0.0
8.858948331372888e-5 5.701221032931212e-5 0.0
6.327723662826003e-5 5.023510672695463e-5 0.0
3.996071274270034e-5 3.403916631977501e-5 0.0
6.771716589486625e-5 -3.072230285638575e-5 0.0
0.00021688723682885934 -4.004706812266233e-5 0.0
8.951570030020682e-5 -3.7381460858246097e-5 0.0
0.00019990813297744416 -3.958626736910787e-5 0.0
0.00011734661613812202 -4.183401350693913e-5 0.0
0.00017907961334110684 -4.0384703947930876e-5 0.0
0.00015196617457441166 -4.3012068044576254e-5 0.0
0.00023182699070874144 -4.061727955124232e-5 0.0
5.2516199863985954e-5 -2.465499914357117e-5 0.0
0.00024240472258916897 -3.964011054005021e-5 0.0
4.113973048415068e-5 -1.8964001870635967e-5 0.0
5.83893909972545e-6 -8.181957687785762e-7 0.0
0.000293134409257693 7.706851037742976e-7 0.0
0.00018817958803001033 2.6470966715437413e-6 0.0
0.00019877431838117259 -5.925229411994918e-6 0.0
0.00017196661710718993 1.1326217428258527e-6 0.0
0.00015879235876984897 8.745335785378982e-6 0.0
0.00025276503505668445 -3.738783666327774e-5 0.0
3.138520966157964e-5 -1.3524420798932752e-5 0.0
4.779952981696114e-6 -7.501428661414472e-7 0.0
0.0002960876074411977 4.6803666372650717e-7 0.0
0.00028961136800152335 9.933835439452443e-7 0.0
6.4653451849890255e-6 -8.717157955290495e-7 0.0
0.00026066341895291745 -3.348228852010211e-5 0.0
2.3483155796789524e-5 -8.867610091325698e-6 0.0
0.0002055147267774311 -9.999453448212301e-6 0.0
0.00014782961386396718 1.3305788923798965e-5 0.0
4.206183495686609e-6 -4.3498314671334587e-7 0.0
0.0002970433219064328 -2.9983489198078846e-7 0.0
0.00010407336110384648 -4.065033759530246e-5 0.0
0.00013431719860335043 -4.341922286272396e-5 0.0
0.0001917732245980731 -3.971765009422407e-5 0.0
0.0001657734566039268 -4.193277188942985e-5 0.0
0.00020711969691293436 -3.975916839551868e-5 0.0
0.00022400561059408695 -4.059733742306535e-5 0.0
8.056526334537941e-5 -3.499547632170882e-5 0.0
6.00443976610896e-5 -2.8039432285876254e-5 0.0
0.0002663629818086595 -2.928360171440249e-5 0.0
1.7794737797083667e-5 -5.73335992374437e-6 0.0
0.000287270819873436 3.6024309324172166e-7 0.0
6.383237407122582e-6 -4.12692245305944e-7 0.0
0.000297183593276686 -6.437553517095371e-7 0.0
4.438578951139458e-6 -3.7088453239923826e-7 0.0
0.00021019856617194308 -7.719235790190777e-6 0.0
0.00014243088467022936 1.3704544502838959e-5 0.0
0.0002834736529020185 -6.442195913047643e-8 0.0
8.89068386544222e-6 6.024554417427244e-7 0.0
5.339978207794437e-6 -7.546415239202358e-7 0.0
0.0002947052788468126 7.063405934313368e-7 0.0
0.0001942603076609785 -8.783600913151722e-7 0.0
0.00016649234548163258 4.866480608326064e-6 0.0
1.1458060773268672e-5 -2.544351961233958e-6 0.0
0.0002757694635991083 -2.0945225137817653e-5 0.0
0.00021173791206698371 -4.015835382604682e-5 0.0
0.0001726678403389365 -4.122592790392871e-5 0.0
9.704178718130878e-5 -3.9149036816663664e-5 0.0
7.397759938258523e-5 -3.315815186617921e-5 0.0
0.00018587043926865182 -3.994765291127678e-5 0.0
0.00023604045053188098 -4.045533712453574e-5 0.0
4.7825293520550933e-5 -2.2340017748284745e-5 0.0
0.00024677799151155894 -3.904372916135529e-5 0.0
3.67046376411638e-5 -1.6507577884983203e-5 0.0
2.7201855852524565e-5 -1.1048956892182151e-5 0.0
0.0002566380289108684 -3.5651844996577377e-5 0.0
7.255344785646652e-5 2.7680356226580998e-5 0.0
0.00023632724064178866 -3.544204266485682e-7 0.0
0.00029725116211149155 -6.046523980528798e-7 0.0
3.968186763633702e-6 -2.7364620847506317e-7 0.0
0.000137278745256478 2.3502172562173077e-5 0.0
0.0002121759118787544 -2.4315916982716078e-6 0.0
9.411503609101615e-6 1.6877332892999211e-6 0.0
0.00028386506998180454 -1.0635943484066735e-7 0.0
6.134493662573398e-6 -7.892426627690594e-7 0.0
0.0002883074720814371 -8.570377924868208e-6 0.0
0.00021991008478310109 -3.72044611667493e-7 0.0
0.00022455913194664045 -1.7323904365492053e-6 0.0
0.0002451744422932554 -9.963749865103153e-7 0.0
0.0002331906071545515 -1.9590973083958668e-6 0.0
0.00021893787814236592 -3.2308267593826165e-6 0.0
0.0002241099662962797 -2.4719595573544485e-6 0.0
0.00023846332516077391 -1.5074825279300424e-6 0.0
0.00022957087882915887 -1.7819219022611266e-6 0.0
0.00024344162772603516 -1.089097701689575e-6 0.0
0.00023487155131511118 -9.009099099626152e-7 0.0
0.00022289897465160112 -1.4800559572930385e-6 0.0
0.000227400389114337 -2.419813864458519e-7 0.0
0.0002179418026489712 -5.971227836516588e-7 0.0
0.0002212806094504186 9.572852559709769e-7 0.0
0.00021334346099345284 7.111896480729035e-7 0.0
0.0002161598924318398 2.7714692682771047e-6 0.0
0.00018569568124105957 -3.1686859483257334e-7 0.0
0.00018085340783080106 -1.1219982180246539e-6 0.0
0.00018393417280065623 -1.220189712714827e-7 0.0
0.00017936345965416178 -7.722453993821999e-7 0.0
0.00018231754941124958 1.7905416149018618e-7 0.0
0.00017800022911077277 -3.1318667485882785e-7 0.0
0.00018092527492320472 4.3716719430871516e-7 0.0
0.000176636768276961 -9.429697710929312e-8 0.0
0.0001795664697150741 6.402307310108154e-7 0.0
0.00017529616090189472 1.1072084545129976e-7 0.0
0.00017827921875983739 8.272799127883824e-7 0.0
0.00017402458499041177 3.066726548197992e-7 0.0
0.00017707315790810793 9.075204714349222e-7 0.0
0.00017297006024334183 4.857363828219285e-7 0.0
0.00017595440746438084 1.077817529962074e-6 0.0
0.00017183743961899031 6.582280964816532e-7 0.0
0.00017488223545091293 1.1626455951704849e-6 0.0
0.0001706039018417942 6.984280523900295e-7 0.0
0.0001738317500013598 1.1960288559967166e-6 0.0
0.00016953929842147966 7.921268027189387e-7 0.0
0.00017283954339367605 1.2586012512899289e-6 0.0
0.00016853699672178727 8.759925152128909e-7 0.0
0.00017177466808010385 1.2992582459005079e-6 0.0
0.0001675434248254027 9.053139729698111e-7 0.0
0.00017082965357078555 1.2744536092011352e-6 0.0
0.00016670281793188289 9.204521391664814e-7 0.0
0.00016993770197697698 1.3066306202720801e-6 0.0
0.000165626379912514 9.031081641123655e-7 0.0
0.00016901919105409568 1.2880793096670124e-6 0.0
0.00016361368819199371 7.447317479398706e-7 0.0
0.00016834696415455805 1.1801797625443366e-6 0.0
0.00016375230744665516 8.096803435339086e-7 0.0
0.000167484936549705 1.1133069550359387e-6 0.0
0.00016306563923580301 6.99280019784543e-7 0.0
0.00016669792648506685 9.578822870764096e-7 0.0
0.0001625396990466697 5.539432554575437e-7 0.0
0.00016590771054479615 7.968493335010668e-7 0.0
0.0001618069747012819 3.89350208384621e-7 0.0
0.00017004980224308893 -5.422377223617694e-7 0.0
0.0001651378556143747 5.711907696689718e-7 0.0
0.0001648400399355036 2.811650544268966e-7 0.0
0.00015822289588873206 3.493723084332971e-7 0.0
0.00016076767217036768 1.003782110772373e-7 0.0
0.00016436187556210401 2.5731465317942546e-7 0.0
0.0001597367386697873 -2.494281206480497e-7 0.0
0.00015559228407959226 -3.773947654984983e-7 0.0
0.00015436888478617407 -7.711220463840645e-7 0.0
0.00016341923391713467 -1.3348713483391134e-7 0.0
0.00016753340748960915 3.707930410235661e-7 0.0
0.00017104750162398827 1.4597965311723418e-6 0.0
0.00016670413331298277 -7.060494138572804e-8 0.0
0.00017064526144642167 4.6851199092969354e-7 0.0
0.00016975881154163597 -7.260621585843332e-8 0.0
0.00014981474066987858 -8.878481794636842e-7 0.0
0.00014876020523411172 -1.2870685861913787e-6 0.0
0.00017351261174751686 4.826578721715861e-7 0.0
0.0001435030154826024 -1.4253889203798968e-6 0.0
0.00014276727230483962 -1.8419597209332815e-6 0.0
0.00017277937022352105 -1.1188222846377092e-7 0.0
0.0001761749915034645 3.9834269009891706e-7 0.0
0.00013694342215103038 -1.9927444028781694e-6 0.0
0.0001360814624703061 -2.4444879733294094e-6 0.0
0.00017560105895765937 -2.4306383098479325e-7 0.0
0.00017890652455371614 2.789640782022809e-7 0.0
0.0001304468650526807 -2.5827103179873125e-6 0.0
0.000129523551954573 -3.1333365780214016e-6 0.0
0.00017838911799219624 -4.526224310410962e-7 0.0
0.00018164377675169426 1.0188138778257137e-7 0.0
0.00012418484912466685 -3.2060241491829952e-6 0.0
0.00012287079490733824 -3.839249704325555e-6 0.0
0.0001812288808162839 -7.094309673647046e-7 0.0
0.00018438026042276521 -1.3404871600932034e-7 0.0
0.00011750409567074012 -3.9028159069266016e-6 0.0
0.00011634805907035498 -4.600699452303636e-6 0.0
0.00011085230481860172 -4.695038519526035e-6 0.0
0.0001120176118238748 -3.9994012863472555e-6 0.0
0.00017764246540785523 -1.264336854121631e-6 0.0
0.00018400705046680673 -1.0522167440714358e-6 0.0
0.00018714632884818944 -4.367561517419946e-7 0.0
0.00018754485481896905 4.667110989371428e-7 0.0
0.00017503717710465674 1.6368283972467446e-6 0.0
0.0001903730224449723 1.8960281894545914e-7 0.0
0.00019077063509828366 1.0676885472032257e-6 0.0
0.00019366717665831288 8.369204105953436e-7 0.0
0.00011016229596029343 -5.441605651093408e-6 0.0
0.00010479111963405572 -5.4716965538398486e-6 0.0
0.00011557096210994914 -5.3878150755794375e-6 0.0
0.00018673333511541268 -1.4857392939879497e-6 0.0
0.00010418552036642793 -6.2407872780934754e-6 0.0
9.905026172983973e-5 -6.1702073667312694e-6 0.0
0.00017919417337524123 1.4859670496496752e-6 0.0
9.847948053456763e-5 -6.941640037830237e-6 0.0
9.358412069606464e-5 -6.776320000122162e-6 0.0
9.305970956991107e-5 -7.594581580785735e-6 0.0
8.841013753083443e-5 -7.278092891081507e-6 0.0
8.880321063903415e-5 -6.577193153844549e-6 0.0
8.336304329204631e-5 -7.028863496439273e-6 0.0
8.38505645507155e-5 -6.313687921583461e-6 0.0
8.731910963409017e-5 -8.152554516998304e-6 0.0
7.810158804168734e-5 -6.726292545264038e-6 0.0
7.855113241121086e-5 -6.031343152787231e-6 0.0
9.257950669752179e-5 -8.50395380331385e-6 0.0
8.767696358084106e-5 -9.07502573867745e-6 0.0
7.307826869981849e-5 -6.3225997905680064e-6 0.0
7.333279083393106e-5 -5.7224362483894825e-6 0.0
0.0001941109766724883 1.6375151173642505e-6 0.0
0.000197139597763616 1.433479210859047e-6 0.0
9.211738074807813e-5 -9.47029487962493e-6 0.0
8.731995303552908e-5 -9.995907923433042e-6 0.0
0.00019758067031365255 2.177707821557444e-6 0.0
0.0002008094631762581 1.994761457945727e-6 0.0
0.00020025659758723073 1.0700884611153143e-6 0.0
0.00020404636734038876 1.7190534026578375e-6 0.0
0.000203584418928514 6.161816125684708e-7 0.0
0.00020746906656622882 1.3853521174327967e-6 0.0
0.0002072252633568253 1.2416982945544088e-7 0.0
0.00021136338100033523 1.083093584892745e-6 0.0
0.00021078166021451102 -3.542447973667696e-7 0.0
0.0002115941137477359 2.141945370010701e-6 0.0
0.00021515135200298073 6.447313445675554e-7 0.0
0.00021434196096552742 -9.882550346961006e-7 0.0
9.174099515778829e-5 -1.045029555714741e-5 0.0
6.76557963937692e-5 -5.947913173398166e-6 0.0
6.77976196287384e-5 -5.392854507715492e-6 0.0
0.00021036282473543895 -2.1779976340725334e-6 0.0
0.00021379346490968734 -2.9911639978452114e-6 0.0
0.0002178137752714941 -1.7099086613495496e-6 0.0
0.00021015285775157573 -4.338094639271341e-6 0.0
8.708707175207007e-5 -1.0940274416979934e-5 0.0
0.00021728760297673179 -3.9653299690771526e-6 0.0
0.00022133752077632294 -2.547099621669621e-6 0.0
9.137865953556099e-5 -1.1456296910915921e-5 0.0
8.684255441637225e-5 -1.1914180056403548e-5 0.0
8.268096309698594e-5 -1.1317278377721386e-5 0.0