# vtk DataFile Version 2.0
phase field modeling fracture
ASCII
DATASET UNSTRUCTURED_GRID
POINTS 2538 float
0.0 0.0 0.0
10.0 0.0 0.0
0.0 10.0 0.0
10.0 10.0 0.0
0.0 4.9995 0.0
0.0 5.0005 0.0
5.0 5.0 0.0
0.9416964895726688 0.0 0.0
1.803581725054446 0.0 0.0
2.592419885431098 0.0 0.0
3.314401822861676 0.0 0.0
3.975193910351406 0.0 0.0
4.579982132660152 0.0 0.0
5.133512780936812 0.0 0.0
5.640130319506143 0.0 0.0
6.103810708661955 0.0 0.0
6.528192895506818 0.0 0.0
6.916607540127679 0.0 0.0
7.272102969376355 0.0 0.0
7.597469242948583 0.0 0.0
7.895259826292669 0.0 0.0
8.167811885738017 0.0 0.0
8.417264413845215 0.0 0.0
8.645575169389538 0.0 0.0
8.854535961159101 0.0 0.0
9.045786767735546 0.0 0.0
9.220828555767493 0.0 0.0
9.38103509633881 0.0 0.0
9.527663687265145 0.0 0.0
9.661865124984566 0.0 0.0
9.784692609918062 0.0 0.0
9.897110148790482 0.0 0.0
10.0 0.09999999999992584 0.0
10.0 0.199999999999856 0.0
10.0 0.2999999999997771 0.0
10.0 0.3999999999996677 0.0
10.0 0.4999999999995511 0.0
10.0 0.5999999999994683 0.0
10.0 0.6999999999993983 0.0
10.0 0.7999999999993286 0.0
10.0 0.8999999999992587 0.0
10.0 0.9999999999991888 0.0
10.0 1.099999999999119 0.0
10.0 1.199999999999033 0.0
10.0 1.299999999998852 0.0
10.0 1.399999999998576 0.0
10.0 1.499999999998284 0.0
10.0 1.599999999997992 0.0
10.0 1.6999999999977 0.0
10.0 1.799999999997408 0.0
10.0 1.899999999997116 0.0
10.0 1.999999999996825 0.0
10.0 2.099999999996533 0.0
10.0 2.199999999996241 0.0
10.0 2.299999999995949 0.0
10.0 2.399999999995657 0.0
10.0 2.499999999995365 0.0
10.0 2.599999999995073 0.0
10.0 2.699999999994782 0.0
10.0 2.79999999999449 0.0
10.0 2.899999999994198 0.0
10.0 2.999999999993906 0.0
10.0 3.099999999993614 0.0
10.0 3.199999999993322 0.0
10.0 3.299999999993029 0.0
10.0 3.399999999992738 0.0
10.0 3.499999999992446 0.0
10.0 3.599999999992154 0.0
10.0 3.699999999991863 0.0
10.0 3.799999999991571 0.0
10.0 3.899999999991278 0.0
10.0 3.999999999991022 0.0
10.0 4.099999999991035 0.0
10.0 4.199999999991187 0.0
10.0 4.299999999991338 0.0
10.0 4.399999999991491 0.0
10.0 4.499999999991642 0.0
10.0 4.599999999991795 0.0
10.0 4.699999999991947 0.0
10.0 4.799999999992099 0.0
10.0 4.89999999999225 0.0
10.0 4.999999999992403 0.0
10.0 5.099999999992555 0.0
10.0 5.199999999992706 0.0
10.0 5.299999999992858 0.0
10.0 5.39999999999301 0.0
10.0 5.499999999993161 0.0
10.0 5.599999999993313 0.0
10.0 5.699999999993466 0.0
10.0 5.799999999993618 0.0
10.0 5.899999999993771 0.0
10.0 5.999999999993922 0.0
10.0 6.099999999994074 0.0
10.0 6.199999999994227 0.0
10.0 6.299999999994378 0.0
10.0 6.39999999999453 0.0
10.0 6.499999999994682 0.0
10.0 6.599999999994833 0.0
10.0 6.699999999994986 0.0
10.0 6.799999999995138 0.0
10.0 6.899999999995289 0.0
10.0 6.999999999995442 0.0
10.0 7.099999999995594 0.0
10.0 7.199999999995747 0.0
10.0 7.299999999995897 0.0
10.0 7.39999999999605 0.0
10.0 7.499999999996202 0.0
10.0 7.599999999996353 0.0
10.0 7.699999999996505 0.0
10.0 7.799999999996658 0.0
10.0 7.899999999996808 0.0
10.0 7.999999999996962 0.0
10.0 8.099999999997113 0.0
10.0 8.199999999997265 0.0
10.0 8.299999999997418 0.0
10.0 8.399999999997569 0.0
10.0 8.499999999997721 0.0
10.0 8.599999999997873 0.0
10.0 8.699999999998024 0.0
10.0 8.799999999998176 0.0
10.0 8.899999999998329 0.0
10.0 8.99999999999848 0.0
10.0 9.099999999998634 0.0
10.0 9.199999999998786 0.0
10.0 9.299999999998937 0.0
10.0 9.399999999999089 0.0
10.0 9.499999999999241 0.0
10.0 9.599999999999392 0.0
10.0 9.699999999999545 0.0
10.0 9.799999999999697 0.0
10.0 9.899999999999848 0.0
9.897110148790565 10.0 0.0
9.784692609918244 10.0 0.0
9.66186512498486 10.0 0.0
9.527663687265571 10.0 0.0
9.381035096339392 10.0 0.0
9.220828555768257 10.0 0.0
9.045786767736512 10.0 0.0
8.854535961160305 10.0 0.0
8.645575169391027 10.0 0.0
8.417264413847017 10.0 0.0
8.167811885740178 10.0 0.0
7.895259826295246 10.0 0.0
7.597469242951631 10.0 0.0
7.272102969379938 10.0 0.0
6.916607540131873 10.0 0.0
6.528192895511704 10.0 0.0
6.103810708667616 10.0 0.0
5.640130319512691 10.0 0.0
5.13351278094435 10.0 0.0
4.579982132668816 10.0 0.0
3.975193910361222 10.0 0.0
3.314401822869852 10.0 0.0
2.592419885437257 10.0 0.0
1.803581725058137 10.0 0.0
0.9416964895740705 10.0 0.0
0.0 9.00010000000243 0.0
0.0 8.000200000005481 0.0
0.0 7.000300000005135 0.0
0.0 6.000400000002569 0.0
0.901790731451151 5.000409820926855 0.0
1.657200899774397 5.000334279910023 0.0
2.289991063707192 5.000271000893629 0.0
2.820065163538221 5.000217993483646 0.0
3.264096435579811 5.000173590356442 0.0
3.636051481595835 5.00013639485184 0.0
3.947629914072366 5.000105237008593 0.0
4.208632181002628 5.0000791367819 0.0
4.427267949625672 5.000057273205037 0.0
4.610414277633563 5.000038958572237 0.0
4.763831845154243 5.000023616815485 0.0
4.892346298799659 5.00001076537012 0.0
4.892346298799748 4.99998923462988 0.0
4.763831845154455 4.999976383184515 0.0
4.610414277633943 4.999961041427763 0.0
4.427267949626277 4.999942726794963 0.0
4.208632181003523 4.9999208632181 0.0
3.94762991407365 4.999894762991407 0.0
3.636051481597624 4.99986360514816 0.0
3.264096435582253 4.999826409643559 0.0
2.820065163541503 4.999782006516354 0.0
2.289991063711534 4.999728999106371 0.0
1.657200899778495 4.999665720089978 0.0
0.9017907314530094 4.999590179073145 0.0
0.0 3.999600000002013 0.0
0.0 2.999700000005187 0.0
0.0 1.99980000000512 0.0
0.0 0.9999000000025537 0.0
9.897889398521345 2.93573355845387 0.0
9.906568249974548 7.060009441434234 0.0
9.913122631074113 3.64016132281653 0.0
9.922462129543863 6.354535290629151 0.0
9.917693659967533 4.354211663134567 0.0
9.909873057440208 5.637584487339942 0.0
9.914183254994697 4.950672966925282 0.0
9.913885043715895 7.666887930262611 0.0
9.91009668007573 2.351889069770817 0.0
9.905135696074536 8.138152454502785 0.0
9.913397459621809 1.849999999997262 0.0
7.099302372137626 0.297750452375005 0.0
7.095143729410097 9.700359990366296 0.0
4.942912558701401 5.095838627899509 0.0
4.315009232304429 5.165022115481685 0.0
4.946182472483878 4.906763777264103 0.0
4.317967462990024 4.825955043772673 0.0
9.916390871492647 8.64999999999792 0.0
9.921504649680616 1.368376469890358 0.0
8.292538149791614 0.206877570318844 0.0
8.292538149793597 9.793122429681448 0.0
5.884594439766573 9.587645267048616 0.0
5.794826292691579 0.3794853783929359 0.0
9.913397459621425 9.049999999998557 0.0
9.908526577714177 0.9568239351922434 0.0
3.456851160380649 5.315740054130451 0.0
3.457889657868442 4.707121019609468 0.0
8.945214200703926 0.1503383337970344 0.0
8.950161364448409 9.8413906539257 0.0
9.913862335499305 4.055887885208452 0.0
9.916697353372683 4.650158482607802 0.0
9.919076340414442 6.049999999994006 0.0
9.906994308667635 5.25749687748192 0.0
9.917490342358025 6.655979201891897 0.0
9.915757520293784 7.343848891656911 0.0
9.910049507471042 3.363474386285078 0.0
9.914471988502868 2.647400064832979 0.0
9.91474124160965 9.337490423485129 0.0
9.916971008170838 0.6499999999994355 0.0
4.307157269264427 9.509674045029644 0.0
4.331527375865619 0.4401616696422582 0.0
9.45434939180249 9.878397030523757 0.0
9.457696120412969 0.1270877537061785 0.0
2.555070293622606 5.422044496190925 0.0
2.566232917480916 4.608001224030952 0.0
3.026511860837692 9.332320638257093 0.0
2.945561971800619 0.5895662714727601 0.0
7.7395404387124 0.2511088946967771 0.0
7.736379255744154 9.745848826372828 0.0
4.687135269408529 5.122111433928926 0.0
4.688420821504113 4.871895064967488 0.0
9.910554884115975 0.3448356354522978 0.0
9.911230082250466 9.65764729394159 0.0
9.921953841410854 6.851023993342036 0.0
9.912065178606017 5.448170483544033 0.0
9.911660025326261 3.861846960030188 0.0
9.914847467973438 3.14501593945607 0.0
9.913397459621425 5.849999999993703 0.0
9.913397459621425 7.849999999996735 0.0
9.906916878988277 2.15455769998631 0.0
9.913397459621425 8.349999999997479 0.0
9.909472363117661 1.640528221515488 0.0
9.913987325695956 1.152857110636247 0.0
9.913397459621425 8.849999999998241 0.0
0.9100099990995943 2.614215977520411 0.0
0.8395284981715456 7.451196254860987 0.0
9.723278867451556 9.898135916635193 0.0
9.723316350887044 0.09841820909386662 0.0
1.385819164827588 4.454539963646463 0.0
1.338343629665047 5.523111536005823 0.0
1.377179700550677 0.6809168304959698 0.0
1.418060461092743 9.285896715136046 0.0
9.91268220142518 0.1457914080939694 0.0
9.906737126737994 9.845745933882352 0.0
0.7108351382691361 6.537941170074089 0.0
1.527735020267026 6.915620208855231 0.0
1.630993885659103 7.838271825205868 0.0
2.232760943566823 7.370850737296832 0.0
2.243414218068206 6.688299277952821 0.0
2.779655053105118 7.021588754814074 0.0
2.80227799359795 7.632420170547022 0.0
3.282022065908813 7.305859666021318 0.0
3.327597298795347 7.857554136825748 0.0
3.743210251018715 7.549183328204379 0.0
3.716353232200752 7.062036086888612 0.0
4.111978858674101 7.27497101169417 0.0
4.104192177581432 6.879858986267289 0.0
4.436230765617037 7.045693351607117 0.0
4.430360014817357 6.703971783962796 0.0
4.732390145036301 6.849841042423394 0.0
5.056161327708878 5.095276573498806 0.0
5.111586796021131 4.999081142133581 0.0
5.169267363407189 5.09444870412406 0.0
5.223795108752053 4.996986220359468 0.0
5.281480803887719 5.092780870372803 0.0
5.335670761900611 4.994887492556936 0.0
5.393485214772442 5.090486192743301 0.0
5.447323082877892 4.992601527033996 0.0
5.505243219343024 5.087953380710069 0.0
5.558739102026105 4.990287787962959 0.0
5.616491581184779 5.085335255235766 0.0
5.669852346908056 4.9879269227514 0.0
5.727502713908907 5.082679981817038 0.0
5.780766004135139 4.988313988715834 0.0
5.838244881129535 5.080480568766611 0.0
5.891357695677371 4.986433849408193 0.0
5.948696036767613 5.077969900389505 0.0
6.001601341641615 4.981313698556656 0.0
6.058851024265095 5.074871552128682 0.0
6.111614020704875 4.978360695880202 0.0
6.168801161530775 5.072044953270978 0.0
6.221368818778567 4.975825765213497 0.0
6.278268309066882 5.066182320461055 0.0
6.330814273567539 4.972837984645718 0.0
6.387565032421376 5.062889771971895 0.0
6.437476667631405 4.971693683589553 0.0
[...]
POINT_DATA 2538
VECTORS disp float
1.4442717964826801e-11 3.254901552618013e-11 0.0
2.5346861213018203e-11 -6.637436576525503e-11 0.0
0.0029999999941443035 1.555458317682592e-11 0.0
0.002999999970093874 -8.02405922528462e-11 0.0
0.0010637785191091199 0.0004265762872501738 0.0
0.0021859547363511506 0.0001549016462565519 0.0
0.0014905937632924897 6.465069939112439e-5 0.0
2.2530764353881912e-12 -4.936967967810284e-13 0.0
5.482253176395967e-12 5.311356525420146e-12 0.0
4.518290005978399e-12 2.2738132804650053e-12 0.0
4.095398744084665e-12 2.105914532579123e-12 0.0
3.4161090513925553e-12 1.3527902908730324e-12 0.0
3.04385044387505e-12 6.941757526731036e-13 0.0
2.6575637191930083e-12 1.685753596125702e-13 0.0
2.37965873388757e-12 -4.882670805952357e-13 0.0
1.9335961147841938e-12 -1.2188415078679398e-12 0.0
2.1587363421648375e-12 -1.997347916657147e-12 0.0
2.107274944908471e-12 -2.9218423609480417e-12 0.0
2.2355447305514436e-12 -3.924094269587573e-12 0.0
2.438242640451409e-12 -4.931938912499192e-12 0.0
2.5024910056828467e-12 -5.792489719266057e-12 0.0
2.8153065914826255e-12 -6.864985596685208e-12 0.0
2.878897828409685e-12 -7.635911696973753e-12 0.0
3.1116692781901394e-12 -8.644236828163351e-12 0.0
3.306613067370775e-12 -9.687513906059762e-12 0.0
3.4714250382250103e-12 -1.067585861067735e-11 0.0
3.732277000991833e-12 -1.189347893735547e-11 0.0
4.0769145892891e-12 -1.327212611824699e-11 0.0
4.610532464228251e-12 -1.5055128249038543e-11 0.0
4.706863008356155e-12 -1.6941438750937745e-11 0.0
6.803321642132073e-12 -2.2103388745175608e-11 0.0
3.203344768157934e-12 -1.8897294202559028e-11 0.0
3.9667067594918776e-5 -4.506883922837053e-5 0.0
6.922487783155552e-5 -7.663997779534008e-5 0.0
9.77037566412652e-5 -0.00010400362815045838 0.0
0.00012467938515259682 -0.0001287206519713857 0.0
0.00015057487407222188 -0.00015164768876054616 0.0
0.00017591082649562025 -0.000173475817503282 0.0
0.00020112509693634222 -0.00019422862548062932 0.0
0.00022597900313656668 -0.0002141182552056026 0.0
0.0002507201065675217 -0.00023334969265581044 0.0
0.00027543337897436237 -0.0002518953159911542 0.0
0.00030012275640329546 -0.0002699435359490746 0.0
0.0003250166028347984 -0.0002874681655533205 0.0
0.0003499332753844918 -0.0003044728382874467 0.0
0.00037498791046805156 -0.00032110818085860204 0.0
0.0004003441503551057 -0.00033729555422317006 0.0
0.00042574188182612605 -0.0003530354432823812 0.0
0.00045137362192115046 -0.0003684351695201446 0.0
0.000477245715344256 -0.0003833890517255691 0.0
0.0005033269942286958 -0.00039800060070569794 0.0
0.000529639611548661 -0.00041226076734766047 0.0
0.0005562142587356809 -0.00042616562540940764 0.0
0.0005830018811123444 -0.0004397099930525991 0.0
0.0006101732621633543 -0.0004529445615161365 0.0
0.0006374467950025629 -0.00046580717080204915 0.0
0.0006651620380618744 -0.00047834757658390915 0.0
0.000692955052977653 -0.0004905091480544395 0.0
0.0007210852114081509 -0.0005023604172433261 0.0
0.0007494199117502842 -0.0005138205036541119 0.0
0.0007781412727371919 -0.0005249783141309406 0.0
0.0008069268019932665 -0.0005357896929623236 0.0
0.000836118817263035 -0.0005462826826607615 0.0
0.000865508561080407 -0.0005563912496138722 0.0
0.0008951901362808752 -0.0005661950294765713 0.0
0.00092504038790031 -0.0005756342638505158 0.0
0.000955241487304247 -0.0005847618516833086 0.0
0.0009854968791013325 -0.0005934880763133636 0.0
0.0010160640393736561 -0.0006018621190637765 0.0
0.0010467337430705903 -0.0006097645754138379 0.0
0.0010775979487019235 -0.000617214752226896 0.0
0.001108647818221999 -0.0006243491795277976 0.0
0.0011398076641175614 -0.0006309812794080253 0.0
0.001171257107355827 -0.0006372729104432269 0.0
0.0012029092655155174 -0.0006431143061456405 0.0
0.0012346945353319241 -0.0006486295469021666 0.0
0.0012667013177970075 -0.0006536499713066491 0.0
0.0012987106161156344 -0.0006583172006062617 0.0
0.001330960975083069 -0.000662599611747965 0.0
0.0013632521564501442 -0.0006664520773360289 0.0
0.0013956607625720337 -0.000669984921792214 0.0
0.001428232663133038 -0.0006730824794092921 0.0
0.0014606069491754148 -0.00067567928031111 0.0
0.0014932821662092851 -0.0006779714065552787 0.0
0.0015255130155095132 -0.0006797458106482018 0.0
0.0015581815093309512 -0.0006811478554408644 0.0
0.0015901700542818077 -0.0006820440088700806 0.0
0.0016227623136805553 -0.0006825860085518334 0.0
0.0016544900067534877 -0.0006826677577614858 0.0
0.0016855044164076917 -0.0006818169590606971 0.0
0.0017164776005986423 -0.000680377642400473 0.0
0.0017471831729811433 -0.0006781570258096631 0.0
0.001777333346250203 -0.0006757667203180193 0.0
0.001807148729303684 -0.0006726865574973145 0.0
0.001837194365640798 -0.0006691910089375527 0.0
0.001866716777608826 -0.0006644186699058898 0.0
0.0018966283795516605 -0.0006592075019736198 0.0
0.0019274248611811009 -0.0006536332086105024 0.0
0.0019569946287228816 -0.0006470738571038008 0.0
0.0019867495875095175 -0.0006397953692973162 0.0
0.0020169419711160838 -0.0006315195602962646 0.0
0.0020473870252764766 -0.0006225803630407029 0.0
0.002077299414528674 -0.0006128544212900174 0.0
0.0021078034603927154 -0.0006020540815214857 0.0
0.0021378754348839743 -0.0005905505790151921 0.0
0.002168080952836331 -0.000578533937119089 0.0
0.0021987698483369473 -0.0005656840777086289 0.0
0.002229198388783863 -0.0005523292131620195 0.0
0.0022597648777655027 -0.0005383726920618708 0.0
0.002290242579315016 -0.0005239212857269378 0.0
0.0023209733209050946 -0.0005089468132736524 0.0
0.002351737331958121 -0.0004934026202083007 0.0
0.002382460194278073 -0.0004773676528518268 0.0
0.0024129479324513717 -0.00046083375757566367 0.0
0.0024434503237383176 -0.00044380838123328535 0.0
0.0024740194922372874 -0.0004261953318034044 0.0
0.0025044371148996263 -0.0004080722868758953 0.0
0.00253488408759753 -0.00038948242194476783 0.0
0.0025655298268961045 -0.0003702212380518832 0.0
0.0025960848854960188 -0.0003503310214061197 0.0
0.0026265810382500414 -0.0003298612882153692 0.0
0.0026573323345941355 -0.00030865440479645905 0.0
0.002688353285820235 -0.00028657178692807544 0.0
0.0027194468217170233 -0.0002635911605768198 0.0
0.002750682608971331 -0.00023969997302132986 0.0
0.0027823109303427894 -0.00021462248571172345 0.0
0.002814746482364807 -0.00018803070229592758 0.0
0.0028475800279892955 -0.00015972474935024373 0.0
0.0028811776529564285 -0.00012904058286862289 0.0
0.002916947967613513 -9.471619705566751e-5 0.0
0.002953846055522973 -5.50555394486838e-5 0.0
0.002999999995978497 -1.9665369887774734e-11 0.0
0.0029999999916932355 -2.2061304860007058e-11 0.0
0.0029999999948845074 -1.30099742686295e-11 0.0
0.0029999999948341063 -1.1234170914541961e-11 0.0
0.0029999999953226335 -8.973165857047065e-12 0.0
0.002999999995502436 -7.454948206184021e-12 0.0
0.002999999995576209 -6.36999631757325e-12 0.0
0.0029999999957416985 -5.433256478461577e-12 0.0
0.0029999999957875468 -4.5920253535467565e-12 0.0
0.0029999999959333446 -3.8256410011376775e-12 0.0
0.002999999996085666 -3.225166076928575e-12 0.0
0.0029999999962023374 -2.4658587535823054e-12 0.0
0.002999999996308688 -1.9021839170193927e-12 0.0
0.0029999999964368594 -1.2146483968587317e-12 0.0
0.0029999999965162334 -5.453266490310495e-13 0.0
0.002999999996559121 2.143494682303955e-13 0.0
0.0029999999966229844 9.977704316997889e-13 0.0
0.0029999999963392704 1.9380871925632257e-12 0.0
0.0029999999966437746 2.705558834418071e-12 0.0
0.0029999999961355167 3.723489906066783e-12 0.0
0.00299999999619254 4.404997478179313e-12 0.0
0.0029999999960530392 5.09807935814305e-12 0.0
0.0029999999962009496 5.249504693074879e-12 0.0
0.0029999999964396566 6.530189903628621e-12 0.0
0.0029999999981367644 3.0761589817704845e-12 0.0
0.0027764603251467356 0.00011318949006445582 0.0
0.002588539617964066 0.00016443908509308801 0.0
0.0024195748833092346 0.00017275866643501518 0.0
0.002275627378112349 0.00016417282457269265 0.0
0.002184783518609266 5.823078008621718e-5 0.0
0.002174376280332428 6.5526750969673974e-6 0.0
0.0021425826952920076 -2.286347073515775e-5 0.0
0.0020978192714901658 -2.4923264731330094e-5 0.0
0.0020435412511683507 -1.239106770995726e-5 0.0
0.0019865909891526104 2.831663724312128e-6 0.0
0.0019281800505824241 1.764620404057358e-5 0.0
0.0018692391148365343 3.2410942436157464e-5 0.0
0.0018086429797954577 4.471417347372129e-5 0.0
0.0017459321309598712 5.417883544463418e-5 0.0
0.0016778039824043316 6.0970207703256525e-5 0.0
0.0015977740262211981 6.5515947539245e-5 0.0
0.0014012865459111274 0.0001035335564381051 0.0
0.0013379492624229518 0.0001196256062649382 0.0
0.0012855859129872098 0.00012938754359295422 0.0
0.001239897178848108 0.00013727534876535784 0.0
0.0011984336187323347 0.00014461674070256498 0.0
0.0011609893106340873 0.0001522463624140986 0.0
0.001127310692275097 0.00016124329515278816 0.0
0.0010986664115690237 0.00017250175785081474 0.0
0.0010764995269268965 0.00019014567608163628 0.0
0.0010609510221411354 0.00021389355362530713 0.0
0.0010604915644923324 0.00026104462040820315 0.0
0.0010596807027703282 0.00032520232995540774 0.0
0.0009535498426140452 0.0004404737210105479 0.0
0.000797376081938641 0.0004291974138768649 0.0
0.0005668596721124747 0.0003537186961880158 0.0
0.00030331064125428393 0.00022944210765782648 0.0
0.0007827356955839408 -0.000503642149184614 0.0
0.002071125543980873 -0.000579094371175327 0.0
0.000993744218785164 -0.0005740979308124333 0.0
0.0018562104522423263 -0.000638452320854288 0.0
0.001217437318997374 -0.0006237344496540435 0.0
0.0016348053041308145 -0.0006554140492719514 0.0
0.001410589651565947 -0.0006474277578695721 0.0
0.0022568547053335303 -0.0005096135054447901 0.0
0.0006187241467360662 -0.0004384023054515699 0.0
0.002402849794141517 -0.0004359456930974852 0.0
0.00048447066885896683 -0.00037110347428641495 0.0
4.8522368468689554e-5 -8.862616749401495e-6 0.0
0.002945717179537009 -5.729865736362435e-6 0.0
0.0016071481745593577 8.447798681038231e-5 0.0
0.0018377241042345457 5.747113586834948e-5 0.0
0.0013738351864864462 0.00010250210367549594 0.0
0.0011992351185511666 0.0001527681263976736 0.0
0.0025585348604615817 -0.000350189853908961 0.0
0.00036135436099722634 -0.0002986615896758312 0.0
3.6085585188368545e-5 -1.47209152339198e-5 0.0
0.002960830838629571 -9.854305566922731e-6 0.0
0.0029241693642292252 3.0531451503994524e-6 0.0
6.36772495165946e-5 1.783087046596298e-6 0.0
0.002682051750255429 -0.00026777799892896236 0.0
0.0002577144000799104 -0.0002243093017765319 0.0
0.0020027906406625065 2.2330568072575563e-5 0.0
0.0010829859658026133 0.0001774112099410385 0.0
2.804217024648365e-5 -1.5168197517577146e-5 0.0
0.0029689242866644478 -1.145175777998884e-5 0.0
0.001122852356710133 -0.0006049934932687718 0.0
0.0013127298615250135 -0.0006375128813621205 0.0
0.0017641269365906243 -0.0006504239095775428 0.0
0.0015109457873806725 -0.0006522674254598001 0.0
0.0019475388566450463 -0.0006177070444798722 0.0
0.0021572996312836023 -0.0005518405944998489 0.0
0.0009096089487830905 -0.0005491816178977622 0.0
0.0007012154063276471 -0.0004754531411264331 0.0
0.0027721277789701454 -0.00020152622757817773 0.0
0.00018170183405354616 -0.00016588138085573857 0.0
0.002903467885614474 1.7159159598028826e-5 0.0
8.376840194512145e-5 1.1747432820715777e-5 0.0
0.0029744446861105513 -1.4178849449944077e-5 0.0
2.661184349119312e-5 -1.8062277881118233e-5 0.0
0.0021128673698563045 5.204387067062456e-7 0.0
0.0010251555105331013 0.0002068527231238662 0.0
0.0028634499800112663 3.0498119660704348e-5 0.0
0.00012314364929890602 2.3725205924566475e-5 0.0
4.227216855789367e-5 -1.289508705432883e-5 0.0
0.0029529621657909894 -8.574191078005904e-6 0.0
0.0017220917167113437 7.571533672859413e-5 0.0
0.0012858276499481882 0.00013637842415090089 0.0
0.0001017705999030452 -9.536570275514258e-5 0.0
0.0028781482923793344 -0.0001133694744904115 0.0
0.002006316427804344 -0.0006042288794323098 0.0
0.0015732741218036418 -0.0006557664852371025 0.0
0.0010622085600146235 -0.0005909520061084275 0.0
0.0008448438705403253 -0.0005294203655194418 0.0
0.001702318806370774 -0.0006543195328159605 0.0
0.002313122506695576 -0.0004834073296863729 0.0
0.0005648620965955357 -0.00041197488959177146 0.0
0.0024670008294561405 -0.0004034996479865772 0.0
0.0004298027798506506 -0.00033914060845470186 0.0
0.00030683270101748727 -0.00026063044791392137 0.0
0.0026201951936313207 -0.00030993115648591293 0.0
0.0006639809526297215 0.00022479453386101052 0.0
0.0024828927409107555 9.925191043617041e-5 0.0
0.0029745369411583785 -1.9045678667318136e-5 0.0
2.325459467934448e-5 -1.8551529217509146e-5 0.0
0.0010035386910789903 0.00028192986294491056 0.0
0.002201997869547519 3.730809359264766e-5 0.0
0.00014710168401935937 3.801752876812225e-5 0.0
0.0028610724514195602 3.368596184635415e-5 0.0
4.485335148087835e-5 -4.237654010157872e-5 0.0
0.0029462309723708386 -5.080742864327943e-5 0.0
0.002337130033375367 9.450088780007696e-5 0.0
0.0023682844393725705 8.101986670889425e-5 0.0
0.00255254358285334 7.770437645372269e-5 0.0
0.002439872013754601 8.361659096008601e-5 0.0
0.0022958874537689403 7.425384047967203e-5 0.0
0.0023425096769475267 9.062852873808458e-5 0.0
0.0024832037412735415 8.784826666852095e-5 0.0
0.0023932934226521545 9.741591105053313e-5 0.0
0.002527760688450296 8.589101022820628e-5 0.0
0.002445985425676922 9.344867519306916e-5 0.0
0.0023202441328458263 0.000103710788036583 0.0
0.002369678755763004 9.693469206021724e-5 0.0
0.002262115990639474 0.00010587365397613835 0.0
0.0023030567818943695 9.6258090293746e-5 0.0
0.0022062313325855116 0.0001046750825944541 0.0
0.0022435947569916306 9.15075686281772e-5 0.0
0.001570147523878643 5.238863110138778e-5 0.0
0.0014826277065458793 3.7930296090158886e-5 0.0
0.0015475236585272124 3.1608425036342656e-5 0.0
0.001476420697135447 2.1004449045872488e-5 0.0
0.0015335255987197806 1.565525404238092e-5 0.0
0.001472270992685757 7.565656141109579e-6 0.0
0.0015240069569939154 2.6656002979281614e-6 0.0
0.0014684641349354665 -4.408540927795602e-6 0.0
0.0015167749242707665 -8.888498990522894e-6 0.0
0.0014651072697266663 -1.5412790692074255e-5 0.0
0.0015110454262462463 -1.949899790775433e-5 0.0
0.0014621751685311712 -2.5744970724361034e-5 0.0
0.0015063507193998464 -2.9905472906271752e-5 0.0
0.0014608002369677913 -3.583587100316167e-5 0.0
0.0015024402003919845 -3.998040102091339e-5 0.0
0.0014584189110432198 -4.581673363915322e-5 0.0
0.0014988114696370574 -4.9884895314081525e-5 0.0
0.0014547631105031288 -5.57138421077546e-5 0.0
0.0014952685434851908 -5.9796073071294805e-5 0.0
0.00145224099893907 -6.55471562102339e-5 0.0
0.0014921387166948045 -6.975702731264157e-5 0.0
0.0014499605043192677 -7.54503419398334e-5 0.0
0.0014878923971255438 -7.973984314410427e-5 0.0
0.0014474759154636699 -8.54740142952709e-5 0.0
0.0014848409297465916 -8.983746050512934e-5 0.0
0.0014457951749265044 -9.535847583100034e-5 0.0
0.0014820557024259615 -0.00010006203048024069 0.0
0.0014416412196235765 -0.00010503235384472661 0.0
0.0014788605854211619 -0.00011041621964443289 0.0
0.0014299625425717992 -0.00011572053247503612 0.0
0.0014782443826400699 -0.00012111209472192154 0.0
0.0014367489725617263 -0.00012694583596943297 0.0
0.0014752489150423348 -0.00013194564319615198 0.0
0.001435864809371866 -0.00013800433076753037 0.0
0.001472885903268699 -0.00014309952741217193 0.0
0.0014360865156509517 -0.00014917965367276196 0.0
0.001470372118406009 -0.00015446343683461823 0.0
0.0014344634092990963 -0.00016081734671495127 0.0
0.0014197223068108406 -9.45560358075135e-6 0.0
0.0014678277269122718 -0.00016615763690799973 0.0
0.0014116177314008162 -6.076092095012238e-5 0.0
0.0013925544934759834 -0.0001248637096665078 0.0
0.0014299853943876572 -0.00017263067357153335 0.0
0.0014650075376670595 -0.00017815748810071292 0.0
0.001425540128799874 -0.00018517784126474807 0.0
0.0013912242982885618 -0.0001784727369469593 0.0
0.0013857868174371268 -0.00019159924225824312 0.0
0.0014606793998329232 -0.00019122451344869015 0.0
0.001500699053551791 -0.00018372016242910964 0.0
0.001513120131249053 -0.00012547920899358666 0.0
0.001496603001572066 -0.00019718694052395735 0.0
0.0015391634066392627 -0.00018832838749253437 0.0
0.0015336245552124976 -0.00020309473681227565 0.0
0.0013518765977331769 -0.00018452523010482335 0.0
0.001347892408168983 -0.0001973246028768667 0.0
0.0015775611413547457 -0.00019346735042678084 0.0
0.0013118173689694937 -0.00018983862433167778 0.0
0.0013100701990691377 -0.00020318012005826882 0.0
0.0015727407683931278 -0.00020843108176171545 0.0
0.0016152937487867738 -0.00019948999377414646 0.0
0.0012715068778164447 -0.00019514837635172146 0.0
0.0012688419441979249 -0.0002088255858772702 0.0
0.0016113948129372658 -0.00021437251702587456 0.0
0.0016551947279747172 -0.0002048888511911013 0.0
0.0012314049211587794 -0.00020033494685030057 0.0
0.0012283707378230764 -0.00021475260638991625 0.0
0.0016511194044838738 -0.00022056318291591975 0.0
0.0016961759729652718 -0.0002101596969651305 0.0
0.0011917053162201169 -0.00020465856692923528 0.0
0.0011860897917918285 -0.0002194498740260844 0.0
0.0016925904009178947 -0.00022624042357503386 0.0
0.001737966918213656 -0.0002152480022040905 0.0
0.0011481583592220907 -0.00020887471003404174 0.0
0.0011436164522426377 -0.00022439337112059972 0.0
0.0011034077862725187 -0.0002138541451692766 0.0
0.0011078846653053511 -0.00019747316409353023 0.0
0.0016434451180684176 -0.00023605956209319273 0.0
0.0017340984990678863 -0.0002319898593328007 0.0
0.0017804530897648266 -0.00022020921748062256 0.0
0.0017850877068911655 -0.00020297225422021234 0.0
0.00152745518874762 -7.434205200715676e-5 0.0
0.001829374571294644 -0.0002075585140252745 0.0
0.00183441838277663 -0.00018962881437671137 0.0
0.0018802281394547182 -0.00019358020889462097 0.0
0.001102343344145411 -0.0002305047890225775 0.0
0.0010603958221748555 -0.00021811820343287588 0.0
0.001141853077779367 -0.00024102371394762564 0.0
0.0017751709835297405 -0.00023787505439760778 0.0
0.0010599462332366216 -0.00023511425038733394 0.0
0.0010175172671579654 -0.0002217243101476903 0.0
0.001548931391533019 -3.308382979762297e-5 0.0
0.0010170716823684014 -0.00023826776775791946 0.0
0.0009746835431934135 -0.00022459262318702563 0.0
0.0009744889895523615 -0.00024144515407262303 0.0
0.0009326943026966849 -0.00022647899364605108 0.0
0.0009319940005258246 -0.0002100790958233611 0.0
0.0008874477876613312 -0.00021231532279438728 0.0
0.0008874669072773138 -0.0001950205783371802 0.0
0.000927602841497982 -0.00024297108629564034 0.0
0.0008395896853434319 -0.00019730290931454546 0.0
0.0008392857623437403 -0.0001796070282582588 0.0
0.0009747938566430896 -0.00025923220043038163 0.0
0.0009349799047553948 -0.00026215688867292484 0.0
0.0007925237684059555 -0.00018042815891597017 0.0
0.0007905971341040243 -0.00016310769357653869 0.0
0.001886572683581675 -0.00017537202519288673 0.0
0.0019343079802650424 -0.0001790036277494222 0.0
0.0009751546042483226 -0.0002772285635263595 0.0
0.0009359517705289038 -0.00027996570426440934 0.0
0.0019412327120405825 -0.00016018018136903302 0.0
0.0019913331091301087 -0.00016387131509332923 0.0
0.0019820853869334204 -0.00018456132489775879 0.0
0.0020395866345573744 -0.00016826685232775328 0.0
0.002031083444090464 -0.0001894122537843196 0.0
0.0020887298655845226 -0.00017146885531157876 0.0
0.0020828969192693563 -0.00019236509983527991 0.0
0.002142581404551748 -0.0001721913588175458 0.0
0.002131692226483195 -0.00019365077304358272 0.0
0.0021483213420151904 -0.0001521627496410569 0.0
0.002192162561928695 -0.00017372557256803702 0.0
0.002178061597517674 -0.00019516986701876432 0.0
0.000976110062368988 -0.0002955640455302675 0.0
0.0007412859737561363 -0.00016335124126438304 0.0
0.0007383727682027636 -0.00014564549924906027 0.0
0.0021224256098291406 -0.00021566101087980627 0.0
0.0021667686928477383 -0.00021685123147331147 0.0
0.002221464050101092 -0.00019597949576208507 0.0
0.0021149465475584508 -0.00023806464271150404 0.0
0.0009379299439813579 -0.00029835596606023326 0.0
0.0022100145002037063 -0.000217290473132132 0.0
0.0022635424116819957 -0.00019580906077240956 0.0
0.000977098997292682 -0.000314416240285667 0.0