# vtk DataFile Version 2.0
phase field modeling fracture
ASCII
DATASET UNSTRUCTURED_GRID
POINTS 2538 float
0.0 0.0 0.0
10.0 0.0 0.0
0.0 10.0 0.0
10.0 10.0 0.0
0.0 4.9995 0.0
0.0 5.0005 0.0
5.0 5.0 0.0
0.9416964895726688 0.0 0.0
1.803581725054446 0.0 0.0
2.592419885431098 0.0 0.0
3.314401822861676 0.0 0.0
3.975193910351406 0.0 0.0
4.579982132660152 0.0 0.0
5.133512780936812 0.0 0.0
5.640130319506143 0.0 0.0
6.103810708661955 0.0 0.0
6.528192895506818 0.0 0.0
6.916607540127679 0.0 0.0
7.272102969376355 0.0 0.0
7.597469242948583 0.0 0.0
7.895259826292669 0.0 0.0
8.167811885738017 0.0 0.0
8.417264413845215 0.0 0.0
8.645575169389538 0.0 0.0
8.854535961159101 0.0 0.0
9.045786767735546 0.0 0.0
9.220828555767493 0.0 0.0
9.38103509633881 0.0 0.0
9.527663687265145 0.0 0.0
9.661865124984566 0.0 0.0
9.784692609918062 0.0 0.0
9.897110148790482 0.0 0.0
10.0 0.09999999999992584 0.0
10.0 0.199999999999856 0.0
10.0 0.2999999999997771 0.0
10.0 0.3999999999996677 0.0
10.0 0.4999999999995511 0.0
10.0 0.5999999999994683 0.0
10.0 0.6999999999993983 0.0
10.0 0.7999999999993286 0.0
10.0 0.8999999999992587 0.0
10.0 0.9999999999991888 0.0
10.0 1.099999999999119 0.0
10.0 1.199999999999033 0.0
10.0 1.299999999998852 0.0
10.0 1.399999999998576 0.0
10.0 1.499999999998284 0.0
10.0 1.599999999997992 0.0
10.0 1.6999999999977 0.0
10.0 1.799999999997408 0.0
10.0 1.899999999997116 0.0
10.0 1.999999999996825 0.0
10.0 2.099999999996533 0.0
10.0 2.199999999996241 0.0
10.0 2.299999999995949 0.0
10.0 2.399999999995657 0.0
10.0 2.499999999995365 0.0
10.0 2.599999999995073 0.0
10.0 2.699999999994782 0.0
10.0 2.79999999999449 0.0
10.0 2.899999999994198 0.0
10.0 2.999999999993906 0.0
10.0 3.099999999993614 0.0
10.0 3.199999999993322 0.0
10.0 3.299999999993029 0.0
10.0 3.399999999992738 0.0
10.0 3.499999999992446 0.0
10.0 3.599999999992154 0.0
10.0 3.699999999991863 0.0
10.0 3.799999999991571 0.0
10.0 3.899999999991278 0.0
10.0 3.999999999991022 0.0
10.0 4.099999999991035 0.0
10.0 4.199999999991187 0.0
10.0 4.299999999991338 0.0
10.0 4.399999999991491 0.0
10.0 4.499999999991642 0.0
10.0 4.599999999991795 0.0
10.0 4.699999999991947 0.0
10.0 4.799999999992099 0.0
10.0 4.89999999999225 0.0
10.0 4.999999999992403 0.0
10.0 5.099999999992555 0.0
10.0 5.199999999992706 0.0
10.0 5.299999999992858 0.0
10.0 5.39999999999301 0.0
10.0 5.499999999993161 0.0
10.0 5.599999999993313 0.0
10.0 5.699999999993466 0.0
10.0 5.799999999993618 0.0
10.0 5.899999999993771 0.0
10.0 5.999999999993922 0.0
10.0 6.099999999994074 0.0
10.0 6.199999999994227 0.0
10.0 6.299999999994378 0.0
10.0 6.39999999999453 0.0
10.0 6.499999999994682 0.0
10.0 6.599999999994833 0.0
10.0 6.699999999994986 0.0
10.0 6.799999999995138 0.0
10.0 6.899999999995289 0.0
10.0 6.999999999995442 0.0
10.0 7.099999999995594 0.0
10.0 7.199999999995747 0.0
10.0 7.299999999995897 0.0
10.0 7.39999999999605 0.0
10.0 7.499999999996202 0.0
10.0 7.599999999996353 0.0
10.0 7.699999999996505 0.0
10.0 7.799999999996658 0.0
10.0 7.899999999996808 0.0
10.0 7.999999999996962 0.0
10.0 8.099999999997113 0.0
10.0 8.199999999997265 0.0
10.0 8.299999999997418 0.0
10.0 8.399999999997569 0.0
10.0 8.499999999997721 0.0
10.0 8.599999999997873 0.0
10.0 8.699999999998024 0.0
10.0 8.799999999998176 0.0
10.0 8.899999999998329 0.0
10.0 8.99999999999848 0.0
10.0 9.099999999998634 0.0
10.0 9.199999999998786 0.0
10.0 9.299999999998937 0.0
10.0 9.399999999999089 0.0
10.0 9.499999999999241 0.0
10.0 9.599999999999392 0.0
10.0 9.699999999999545 0.0
10.0 9.799999999999697 0.0
10.0 9.899999999999848 0.0
9.897110148790565 10.0 0.0
9.784692609918244 10.0 0.0
9.66186512498486 10.0 0.0
9.527663687265571 10.0 0.0
9.381035096339392 10.0 0.0
9.220828555768257 10.0 0.0
9.045786767736512 10.0 0.0
8.854535961160305 10.0 0.0
8.645575169391027 10.0 0.0
8.417264413847017 10.0 0.0
8.167811885740178 10.0 0.0
7.895259826295246 10.0 0.0
7.597469242951631 10.0 0.0
7.272102969379938 10.0 0.0
6.916607540131873 10.0 0.0
6.528192895511704 10.0 0.0
6.103810708667616 10.0 0.0
5.640130319512691 10.0 0.0
5.13351278094435 10.0 0.0
4.579982132668816 10.0 0.0
3.975193910361222 10.0 0.0
3.314401822869852 10.0 0.0
2.592419885437257 10.0 0.0
1.803581725058137 10.0 0.0
0.9416964895740705 10.0 0.0
0.0 9.00010000000243 0.0
0.0 8.000200000005481 0.0
0.0 7.000300000005135 0.0
0.0 6.000400000002569 0.0
0.901790731451151 5.000409820926855 0.0
1.657200899774397 5.000334279910023 0.0
2.289991063707192 5.000271000893629 0.0
2.820065163538221 5.000217993483646 0.0
3.264096435579811 5.000173590356442 0.0
3.636051481595835 5.00013639485184 0.0
3.947629914072366 5.000105237008593 0.0
4.208632181002628 5.0000791367819 0.0
4.427267949625672 5.000057273205037 0.0
4.610414277633563 5.000038958572237 0.0
4.763831845154243 5.000023616815485 0.0
4.892346298799659 5.00001076537012 0.0
4.892346298799748 4.99998923462988 0.0
4.763831845154455 4.999976383184515 0.0
4.610414277633943 4.999961041427763 0.0
4.427267949626277 4.999942726794963 0.0
4.208632181003523 4.9999208632181 0.0
3.94762991407365 4.999894762991407 0.0
3.636051481597624 4.99986360514816 0.0
3.264096435582253 4.999826409643559 0.0
2.820065163541503 4.999782006516354 0.0
2.289991063711534 4.999728999106371 0.0
1.657200899778495 4.999665720089978 0.0
0.9017907314530094 4.999590179073145 0.0
0.0 3.999600000002013 0.0
0.0 2.999700000005187 0.0
0.0 1.99980000000512 0.0
0.0 0.9999000000025537 0.0
9.897889398521345 2.93573355845387 0.0
9.906568249974548 7.060009441434234 0.0
9.913122631074113 3.64016132281653 0.0
9.922462129543863 6.354535290629151 0.0
9.917693659967533 4.354211663134567 0.0
9.909873057440208 5.637584487339942 0.0
9.914183254994697 4.950672966925282 0.0
9.913885043715895 7.666887930262611 0.0
9.91009668007573 2.351889069770817 0.0
9.905135696074536 8.138152454502785 0.0
9.913397459621809 1.849999999997262 0.0
7.099302372137626 0.297750452375005 0.0
7.095143729410097 9.700359990366296 0.0
4.942912558701401 5.095838627899509 0.0
4.315009232304429 5.165022115481685 0.0
4.946182472483878 4.906763777264103 0.0
4.317967462990024 4.825955043772673 0.0
9.916390871492647 8.64999999999792 0.0
9.921504649680616 1.368376469890358 0.0
8.292538149791614 0.206877570318844 0.0
8.292538149793597 9.793122429681448 0.0
5.884594439766573 9.587645267048616 0.0
5.794826292691579 0.3794853783929359 0.0
9.913397459621425 9.049999999998557 0.0
9.908526577714177 0.9568239351922434 0.0
3.456851160380649 5.315740054130451 0.0
3.457889657868442 4.707121019609468 0.0
8.945214200703926 0.1503383337970344 0.0
8.950161364448409 9.8413906539257 0.0
9.913862335499305 4.055887885208452 0.0
9.916697353372683 4.650158482607802 0.0
9.919076340414442 6.049999999994006 0.0
9.906994308667635 5.25749687748192 0.0
9.917490342358025 6.655979201891897 0.0
9.915757520293784 7.343848891656911 0.0
9.910049507471042 3.363474386285078 0.0
9.914471988502868 2.647400064832979 0.0
9.91474124160965 9.337490423485129 0.0
9.916971008170838 0.6499999999994355 0.0
4.307157269264427 9.509674045029644 0.0
4.331527375865619 0.4401616696422582 0.0
9.45434939180249 9.878397030523757 0.0
9.457696120412969 0.1270877537061785 0.0
2.555070293622606 5.422044496190925 0.0
2.566232917480916 4.608001224030952 0.0
3.026511860837692 9.332320638257093 0.0
2.945561971800619 0.5895662714727601 0.0
7.7395404387124 0.2511088946967771 0.0
7.736379255744154 9.745848826372828 0.0
4.687135269408529 5.122111433928926 0.0
4.688420821504113 4.871895064967488 0.0
9.910554884115975 0.3448356354522978 0.0
9.911230082250466 9.65764729394159 0.0
9.921953841410854 6.851023993342036 0.0
9.912065178606017 5.448170483544033 0.0
9.911660025326261 3.861846960030188 0.0
9.914847467973438 3.14501593945607 0.0
9.913397459621425 5.849999999993703 0.0
9.913397459621425 7.849999999996735 0.0
9.906916878988277 2.15455769998631 0.0
9.913397459621425 8.349999999997479 0.0
9.909472363117661 1.640528221515488 0.0
9.913987325695956 1.152857110636247 0.0
9.913397459621425 8.849999999998241 0.0
0.9100099990995943 2.614215977520411 0.0
0.8395284981715456 7.451196254860987 0.0
9.723278867451556 9.898135916635193 0.0
9.723316350887044 0.09841820909386662 0.0
1.385819164827588 4.454539963646463 0.0
1.338343629665047 5.523111536005823 0.0
1.377179700550677 0.6809168304959698 0.0
1.418060461092743 9.285896715136046 0.0
9.91268220142518 0.1457914080939694 0.0
9.906737126737994 9.845745933882352 0.0
0.7108351382691361 6.537941170074089 0.0
1.527735020267026 6.915620208855231 0.0
1.630993885659103 7.838271825205868 0.0
2.232760943566823 7.370850737296832 0.0
2.243414218068206 6.688299277952821 0.0
2.779655053105118 7.021588754814074 0.0
2.80227799359795 7.632420170547022 0.0
3.282022065908813 7.305859666021318 0.0
3.327597298795347 7.857554136825748 0.0
3.743210251018715 7.549183328204379 0.0
3.716353232200752 7.062036086888612 0.0
4.111978858674101 7.27497101169417 0.0
4.104192177581432 6.879858986267289 0.0
4.436230765617037 7.045693351607117 0.0
4.430360014817357 6.703971783962796 0.0
4.732390145036301 6.849841042423394 0.0
5.056161327708878 5.095276573498806 0.0
5.111586796021131 4.999081142133581 0.0
5.169267363407189 5.09444870412406 0.0
5.223795108752053 4.996986220359468 0.0
5.281480803887719 5.092780870372803 0.0
5.335670761900611 4.994887492556936 0.0
5.393485214772442 5.090486192743301 0.0
5.447323082877892 4.992601527033996 0.0
5.505243219343024 5.087953380710069 0.0
5.558739102026105 4.990287787962959 0.0
5.616491581184779 5.085335255235766 0.0
5.669852346908056 4.9879269227514 0.0
5.727502713908907 5.082679981817038 0.0
5.780766004135139 4.988313988715834 0.0
5.838244881129535 5.080480568766611 0.0
5.891357695677371 4.986433849408193 0.0
5.948696036767613 5.077969900389505 0.0
6.001601341641615 4.981313698556656 0.0
6.058851024265095 5.074871552128682 0.0
6.111614020704875 4.978360695880202 0.0
6.168801161530775 5.072044953270978 0.0
6.221368818778567 4.975825765213497 0.0
6.278268309066882 5.066182320461055 0.0
6.330814273567539 4.972837984645718 0.0
6.387565032421376 5.062889771971895 0.0
6.437476667631405 4.971693683589553 0.0
[...]
POINT_DATA 2538
VECTORS disp float
1.6710362112211795e-11 4.091349547104954e-11 0.0
3.345682920292403e-11 -9.09157201506983e-11 0.0
0.003799999988226441 3.008758739270375e-11 0.0
0.0037999999644921507 -9.763828351768421e-11 0.0
0.0012556697599333845 0.0005162471530636628 0.0
0.002748371815746902 0.0002760625905654239 0.0
0.0018696519631330923 0.00010593235122446164 0.0
4.070720374459516e-12 2.5717792200496634e-12 0.0
7.767217734902893e-12 8.972375571855888e-12 0.0
6.912625157439604e-12 5.214223732125217e-12 0.0
6.631194960441552e-12 4.798242022579724e-12 0.0
6.04142223293159e-12 3.4493347230633607e-12 0.0
5.5610888340734506e-12 2.3456721338774276e-12 0.0
5.1157816768946915e-12 1.251855179280784e-12 0.0
4.771806917480741e-12 9.066206222069913e-14 0.0
4.12628328804435e-12 -1.1827912378997386e-12 0.0
4.3784103641529055e-12 -2.343247620087586e-12 0.0
4.215496536880775e-12 -3.711612687830401e-12 0.0
4.269469300250289e-12 -5.186435109409105e-12 0.0
4.457588901464157e-12 -6.670149644994895e-12 0.0
4.460045041951845e-12 -8.050341216893323e-12 0.0
4.7869178425886264e-12 -9.709497994108279e-12 0.0
4.827565578835354e-12 -1.1073696230835156e-11 0.0
5.141438764646757e-12 -1.2707165773839815e-11 0.0
5.298261138486644e-12 -1.4532615899091615e-11 0.0
5.5600427745813135e-12 -1.6262140687112867e-11 0.0
5.874911227457783e-12 -1.835361097082796e-11 0.0
6.280817825524038e-12 -2.0712026203097868e-11 0.0
6.972925967551796e-12 -2.3621623662924326e-11 0.0
7.071832248564324e-12 -2.6730630587436635e-11 0.0
9.714615314659574e-12 -3.4067800862809286e-11 0.0
4.401005600794063e-12 -3.095868809196353e-11 0.0
4.78509842785264e-5 -6.198265999754815e-5 0.0
8.297540005046537e-5 -0.00010654599505792868 0.0
0.00011700981005825123 -0.00014528160924043244 0.0
0.0001495385598807861 -0.00018040999168576318 0.0
0.00018100341651228858 -0.00021303170892616053 0.0
0.00021203954853303051 -0.00024400200969949565 0.0
0.00024315768761272701 -0.00027343963661458017 0.0
0.00027406445626895423 -0.00030159305461716903 0.0
0.00030503163323886053 -0.0003287244950951651 0.0
0.00033613899046565685 -0.0003548329061102298 0.0
0.0003674012027126671 -0.0003801476263113466 0.0
0.0003990597576117529 -0.0004046710013524826 0.0
0.0004308758575211085 -0.00042840424527295533 0.0
0.0004630055813313462 -0.0004515309735965387 0.0
0.0004956436692955309 -0.0004739982083151966 0.0
0.0005284360925150692 -0.0004957852060749076 0.0
0.0005616141342469312 -0.000517023520691515 0.0
0.00059517020333252 -0.0005376043050678348 0.0
0.0006290757271730393 -0.0005576473502519135 0.0
0.0006633483235565896 -0.0005771455114729674 0.0
0.0006980308465346991 -0.0005961000607516692 0.0
0.0007330393589485736 -0.000614499418867433 0.0
0.0007685865548372914 -0.0006324253132610896 0.0
0.0008043278748438794 -0.0006497770814470872 0.0
0.000840655461424399 -0.0006666413224111347 0.0
0.0008771476270213819 -0.0006829319226576992 0.0
0.0009140889050815496 -0.0006987458505237694 0.0
0.0009513241817870399 -0.000713977271251108 0.0
0.00098907271514498 -0.0007287495811061067 0.0
0.0010269593638007099 -0.000742977795294287 0.0
0.0010653576129064722 -0.0007567268649503361 0.0
0.0011040275750637638 -0.0007698968425504246 0.0
0.0011430678997749898 -0.000782571508009461 0.0
0.0011823369933468086 -0.0007946908758511013 0.0
0.001222073305549802 -0.0008063152741279799 0.0
0.0012619207487116859 -0.0008173455490668578 0.0
0.0013021241691341134 -0.0008278498413394446 0.0
0.0013425331772107234 -0.0008377321580597314 0.0
0.0013832208403929088 -0.0008470184733496349 0.0
0.0014241242429688492 -0.0008558040966282146 0.0
0.0014652072513141987 -0.0008639244158336067 0.0
0.0015065704760207875 -0.0008715398889114985 0.0
0.0015481391008322486 -0.0008785179851519108 0.0
0.0015898214709157022 -0.0008849808299347772 0.0
0.0016317147785365163 -0.0008907511577164119 0.0
0.0016735870971481652 -0.0008959841959826577 0.0
0.0017156632579293396 -0.0009006385547947689 0.0
0.00175775365005808 -0.0009046373142578923 0.0
0.00179989699301366 -0.0009081151178078317 0.0
0.0018421913105927787 -0.0009109346704980148 0.0
0.0018841289863794114 -0.0009130132087370877 0.0
0.001926467414088945 -0.0009145973292692717 0.0
0.0019679759931790666 -0.000915427440312762 0.0
0.0020099108356161424 -0.0009156853506821829 0.0
0.0020499572195019555 -0.0009148503300406452 0.0
0.002091431718829179 -0.0009134910221297107 0.0
0.002131397998473634 -0.0009114902978793998 0.0
0.0021711209360156026 -0.0009083266171740106 0.0
0.002210727935234584 -0.0009045605705425969 0.0
0.0022502002287187696 -0.0008993279098224771 0.0
0.002289444514596282 -0.000893326933759003 0.0
0.0023287786305089013 -0.0008859706490151653 0.0
0.0023685277917369785 -0.0008777549249000305 0.0
0.0024082262501337044 -0.0008681180865145937 0.0
0.002448462587709757 -0.0008575763158141307 0.0
0.0024888675906545215 -0.0008462192426600717 0.0
0.002529019718180296 -0.0008339614134923149 0.0
0.0025693204367629847 -0.000821110207190728 0.0
0.002609740552149714 -0.0008075184101373024 0.0
0.0026501413175045326 -0.0007932248922116499 0.0
0.002690237087432708 -0.0007783778631819295 0.0
0.0027304710439410955 -0.0007628053453609754 0.0
0.0027702892773395537 -0.0007466462787760526 0.0
0.0028099098160794572 -0.0007300465888320471 0.0
0.0028494991703150886 -0.0007127359651250276 0.0
0.0028886205831647007 -0.0006949624371092476 0.0
0.00292759471534046 -0.0006766230269485931 0.0
0.0029662489138954375 -0.0006577309692209249 0.0
0.003004755485938928 -0.0006382789011087795 0.0
0.0030429840417528567 -0.0006181944573989376 0.0
0.003080950890365635 -0.0005975109267954668 0.0
0.003118460520479994 -0.0005762902492351486 0.0
0.0031557943697680425 -0.0005544913282115556 0.0
0.003192934042682041 -0.0005320236885167511 0.0
0.0032297086059161566 -0.0005089241929720102 0.0
0.003266308903310181 -0.0004852232849039833 0.0
0.0033028514790187447 -0.0004607255800192728 0.0
0.003339066042084439 -0.0004354648826986431 0.0
0.003375035917464314 -0.00040949284924934453 0.0
0.0034110792791651225 -0.00038264111005894896 0.0
0.003447175857125514 -0.0003547619393175599 0.0
0.0034831178864479463 -0.00032579820436787763 0.0
0.0035190030601263207 -0.00029571122453742125 0.0
0.0035551296304470728 -0.0002642275789060465 0.0
0.003591940895983679 -0.00023097481480033525 0.0
0.003628955440064943 -0.00019571995740203397 0.0
0.0036665976508495402 -0.00015764348561897326 0.0
0.0037065500978318397 -0.0001153976456431483 0.0
0.0037475661065175334 -6.683411542823426e-5 0.0
0.003799999994992725 -2.9515163726474195e-11 0.0
0.0037999999892921327 -3.2687702648925915e-11 0.0
0.003799999992528493 -2.2255308189148995e-11 0.0
0.00379999999255268 -1.96191872607082e-11 0.0
0.0037999999930840734 -1.653165142813587e-11 0.0
0.003799999993426319 -1.4259948748960764e-11 0.0
0.003799999993567857 -1.2534520473896697e-11 0.0
0.0037999999938178562 -1.098467869177787e-11 0.0
0.003799999993909574 -9.559244150432632e-12 0.0
0.0037999999940845626 -8.18139268049154e-12 0.0
0.0037999999943494262 -7.068124335823461e-12 0.0
0.00379999999440084 -5.627132251279918e-12 0.0
0.003799999994550756 -4.5471386134990455e-12 0.0
0.0037999999946770843 -3.281405650517698e-12 0.0
0.003799999994737224 -2.068855954049714e-12 0.0
0.003799999994738759 -7.695840482059243e-13 0.0
0.0037999999947782685 5.21257844949295e-13 0.0
0.003799999994292508 1.9951270740735946e-12 0.0
0.0037999999946533767 3.1941601781078136e-12 0.0
0.003799999993837855 4.738237521913201e-12 0.0
0.003799999993836168 5.7634691801649406e-12 0.0
0.0037999999935414445 6.888299238070454e-12 0.0
0.0037999999937753668 7.1918193251215075e-12 0.0
0.0037999999936913138 9.762737900482328e-12 0.0
0.0037999999967179305 4.278501097612594e-12 0.0
0.0035163732738506294 0.0001889602068040047 0.0
0.003272006280241996 0.0002746538472904252 0.0
0.0030527084938464957 0.000301612252868901 0.0
0.0028678749181593947 0.0002940329459012448 0.0
0.0027418289645473578 0.00015939144509673979 0.0
0.0027219280182744997 0.00010006717729438186 0.0
0.0026760412122290335 7.623254696357938e-5 0.0
0.002621658294668531 7.219210794319154e-5 0.0
0.0025591187733981103 7.832046061292058e-5 0.0
0.002492779757559829 8.624091681176243e-5 0.0
0.0024235432549377964 9.405382100303628e-5 0.0
0.0023523875039726666 0.00010282392557173017 0.0
0.002277831541690484 0.00010989469263014542 0.0
0.0021991558358879205 0.00011458976236300986 0.0
0.002112406502584308 0.0001164113641215826 0.0
0.0020092155598037107 0.00011649531307335057 0.0
0.001740427209425528 0.00014498344005441885 0.0
0.0016494127847094158 0.0001581067836672807 0.0
0.0015744887472735356 0.0001641287697619371 0.0
0.0015093838786342424 0.00016846843432528663 0.0
0.0014505703240255384 0.00017260225882990038 0.0
0.0013975435424437412 0.0001774626265523815 0.0
0.0013500602831966297 0.00018438399474985016 0.0
0.001309767862236099 0.0001949744127053602 0.0
0.001278447301826092 0.00021407704236516616 0.0
0.0012572126578916667 0.00024579461742563685 0.0
0.001251346754418012 0.0003010921457997063 0.0
0.0012515129883836553 0.0003847278886896357 0.0
0.001113373019401379 0.0005288704244934392 0.0
0.0009072358042691588 0.000499816393974546 0.0
0.000633640979359047 0.0004095627381177532 0.0
0.00033626149846141616 0.0002667545378007819 0.0
0.0009963941830375426 -0.0006980246206648818 0.0
0.0026821116502221787 -0.0007412839314476486 0.0
0.0012736954108787824 -0.000789474875319785 0.0
0.0023950832095205408 -0.0008352286366847689 0.0
0.0015678165586306685 -0.0008507789252156286 0.0
0.0021081128644479504 -0.0008749471452555714 0.0
0.001819925994092873 -0.0008763471258002157 0.0
0.0029228186825042786 -0.0006454376644860012 0.0
0.0007809437031415526 -0.0006114365182373693 0.0
0.003104850742870132 -0.0005504923836661588 0.0
0.0006056104461290725 -0.00052020271045007 0.0
6.251977901652444e-5 -1.145386928419216e-5 0.0
0.0037352090368361845 -1.041467996067584e-5 0.0
0.002027814562132615 0.00013512348082773474 0.0
0.002323027739333443 0.0001265248154933193 0.0
0.0017113662969929974 0.00014930597662945395 0.0
0.00146042569837574 0.00018525565444281664 0.0
0.0032936483439214076 -0.00044032380618025494 0.0
0.00044634479461672246 -0.00042055014650641464 0.0
4.3837041969149734e-5 -2.0669151446736375e-5 0.0
0.0037542058327666066 -1.7578053894290703e-5 0.0
0.003707953062062446 2.7436568059699035e-6 0.0
8.367450766208687e-5 3.019888677624923e-6 0.0
0.0034391323569209686 -0.00033614304087896765 0.0
0.00031452278574596983 -0.0003171998828251961 0.0
0.0025288516914867692 0.00010941941607463157 0.0
0.0012996246569727135 0.00020229650119739587 0.0
3.304706016444239e-5 -2.2328531017209144e-5 0.0
0.003763515975713423 -1.997742962999066e-5 0.0
0.0014435710557866366 -0.0008279700539559456 0.0
0.0016924585204854937 -0.0008664803397763262 0.0
0.0022732013958240674 -0.0008584522617794869 0.0
0.0019500888482207996 -0.00087858472326382 0.0
0.002517544066792301 -0.000800146401366081 0.0
0.002795142975602142 -0.0007016959321955572 0.0
0.001163091072644967 -0.0007576185626952948 0.0
0.0008890876598771025 -0.000661115153287075 0.0
0.003542999739748931 -0.00025271660448430847 0.0
0.0002195069911363889 -0.00023514767377232046 0.0
0.003682529434318319 2.31383137502598e-5 0.0
0.00010552482031202939 1.837009087048632e-5 0.0
0.0037695762308838877 -2.2778806144615083e-5 0.0
3.077214510315087e-5 -2.7220505643391653e-5 0.0
0.002655885042238971 0.000100193243830545 0.0
0.001215893354847547 0.00023653189795980943 0.0
0.0036347821815227964 4.31685727550081e-5 0.0
0.00014868594681108127 3.6821806087538616e-5 0.0
5.275032960498082e-5 -1.7371499139425464e-5 0.0
0.0037445723764996707 -1.5220496917724369e-5 0.0
0.0021758731064483172 0.0001359962378563537 0.0
0.0015834537868119672 0.0001771218878200025 0.0
0.0001217354392777541 -0.00013596735788516147 0.0
0.0036629546336343897 -0.00014281600226065047 0.0
0.002596188024480383 -0.0007775121382420022 0.0
0.0020300864837625382 -0.0008802599512653615 0.0
0.0013637445357100443 -0.0008105336682038752 0.0
0.0010778669364864466 -0.0007322272456131313 0.0
0.0021934835448009617 -0.0008676773738143914 0.0
0.002993865184370123 -0.0006112322782921659 0.0
0.0007105083740838778 -0.000575729652716792 0.0
0.0031833627620305107 -0.0005084242997056737 0.0
0.0005347362772284589 -0.0004763730006417335 0.0
0.0003767238508416263 -0.0003677928435299853 0.0
0.0033666906260133344 -0.00038940540208214574 0.0
0.0007536921386424421 0.0002755084721316052 0.0
0.003148369299789454 0.00019730932925010844 0.0
0.003770301259657306 -2.7400855263685328e-5 0.0
2.6768351430575347e-5 -2.7851898223320394e-5 0.0
0.0011768808583369644 0.000326781021099138 0.0
0.002763504372047566 0.00013878850491126564 0.0
0.00017115688647282573 5.859321879927239e-5 0.0
0.003629914169741879 5.53668165654667e-5 0.0
5.319791796105837e-5 -6.101195017386312e-5 0.0
0.003739082171831193 -6.520502122073117e-5 0.0
0.002949817252486029 0.0002112681154595693 0.0
0.003009818023713467 0.00017522319065259407 0.0
0.003246873765732622 0.00014402576517040037 0.0
0.0031108933796640294 0.00015235324222870455 0.0
0.0029275096405096575 0.0001615271430823623 0.0
0.002994016112883819 0.00015944246996243096 0.0
0.0031695591054106014 0.00014041433431060256 0.0
0.003060221131497424 0.00015106029597490448 0.0
0.0032257416087943876 0.0001264884622070101 0.0
0.003125236374887742 0.00013542560518894076 0.0
0.002970091164428314 0.0001560473836212929 0.0
0.0030300774307778795 0.0001388948148457446 0.0
0.0028966937023111594 0.00015525057560644375 0.0
0.0029454264101544474 0.00013639228275988332 0.0
0.0028241365147367633 0.00015029436339948055 0.0
0.0028681882842690482 0.00012785636210622226 0.0
0.0019804778131172675 9.024167472899298e-5 0.0
0.0018645671733993402 7.141639271794782e-5 0.0
0.001954687563854283 6.218248931981542e-5 0.0
0.0018605280339734486 4.863469746812879e-5 0.0
0.0019395128345303786 4.0742220434386724e-5 0.0
0.0018583315518577812 3.0276726184050968e-5 0.0
0.0019296860940569759 2.253233823043736e-5 0.0
0.0018561414624100778 1.336893015627683e-5 0.0
0.0019224960657600286 5.993832908004805e-6 0.0
0.001854240041746751 -2.371888705280471e-6 0.0
0.0019170093219229754 -9.346568014648458e-6 0.0
0.0018527055428106517 -1.7198794342911062e-5 0.0
0.0019127249852138638 -2.4295050967395472e-5 0.0
0.0018530642797142266 -3.1658611809756056e-5 0.0
0.0019093369738772958 -3.871413467129771e-5 0.0
0.0018519118841327953 -4.587534989667538e-5 0.0
0.001906234858248741 -5.2818104740008606e-5 0.0
0.0018489761144923934 -5.9861118543118926e-5 0.0
0.0019031670176745668 -6.678424233893348e-5 0.0
0.00184742558439805 -7.367418051812557e-5 0.0
0.0019005639021392917 -8.070265483255633e-5 0.0
0.001846117947954856 -8.74906101462367e-5 0.0
0.0018964541673557277 -9.454593740419523e-5 0.0
0.0018445030433596142 -0.00010139480840538483 0.0
0.0018939071372201933 -0.00010851463179609198 0.0
0.0018438737365667642 -0.00011507076344900197 0.0
0.001891681205689935 -0.00012258945588498342 0.0
0.0018399370592894913 -0.00012832497117939583 0.0
0.0018889239424880386 -0.00013677060155314796 0.0
0.001826373816401755 -0.00014272262521494388 0.0
0.0018895128468179856 -0.00015143044268871945 0.0
0.0018367078533381817 -0.0001583153990997046 0.0
0.0018869887450358679 -0.00016616914432982432 0.0
0.0018370240489780723 -0.00017344191616152643 0.0
0.0018852881148201136 -0.0001813411705079738 0.0
0.0018387263160155802 -0.0001887350680195303 0.0
0.0018833807546738016 -0.00019677549103654793 0.0
0.0018380419301776457 -0.00020458967860601305 0.0
0.0017918909596737417 6.565691438772946e-6 0.0
0.0018814373484724088 -0.00021264982270471835 0.0
0.0017930485759294246 -6.588583591993304e-5 0.0
0.0017793510971430553 -0.00015429251556708573 0.0
0.0018336695700240607 -0.0002206235991819831 0.0
0.0018791364088306343 -0.00022893975502788095 0.0
0.0018293614335421345 -0.0002376692554080211 0.0
0.0017846584549167587 -0.00022777562939028056 0.0
0.0017791387937114269 -0.0002456502729999641 0.0
0.0018749693762654407 -0.0002466628916637143 0.0
0.0019253710123222718 -0.00023730225734266562 0.0
0.0019350132372910778 -0.0001583259817657461 0.0
0.0019214901377168007 -0.00025554601956599715 0.0
0.0019749631913676367 -0.0002444191409724507 0.0
0.0019693204830620176 -0.0002643581167803259 0.0
0.0017349152289688498 -0.00023527608470757155 0.0
0.0017311949048103813 -0.000252806710924376 0.0
0.00202443065066058 -0.00025223531169543456 0.0
0.0016841535537953584 -0.00024185142280048848 0.0
0.0016833157302306493 -0.00026024438903633193 0.0
0.002019683728622715 -0.000272423715611938 0.0
0.002073035220293191 -0.00026121953700745406 0.0
0.0016330379303537007 -0.0002485289631978039 0.0
0.001630999836423379 -0.0002674708707444843 0.0
0.0020694287933584223 -0.00028129525230264165 0.0
0.0021242520006672966 -0.0002694034540325791 0.0
0.0015821299004323954 -0.0002551766769294836 0.0
0.0015796139052732638 -0.0002752503253461049 0.0
0.0021204881712915016 -0.00029053509231634887 0.0
0.0021767523893889227 -0.0002774500204922499 0.0
0.0015316110582810952 -0.00026075810005331973 0.0
0.001525727003691567 -0.0002814438983614491 0.0
0.0021736566410589008 -0.0002991361869931849 0.0
0.0022301998966882696 -0.0002852894925824838 0.0
0.0014760871403399788 -0.0002663161320072372 0.0
0.0014715210956177764 -0.0002881788385467684 0.0
0.0014190072707081748 -0.00027315408865825165 0.0
0.0014233237939100575 -0.00025000500149714705 0.0
0.0021121389161699133 -0.0003113805743516781 0.0
0.002226814514098079 -0.0003078441536012674 0.0
0.00228445818787118 -0.0002929721298897923 0.0
0.0022887738922567425 -0.00026981727042827314 0.0
0.0019474805328166154 -8.814811266693098e-5 0.0
0.0023451936450919115 -0.0002770573299637326 0.0
0.0023499875950054486 -0.00025302688309039427 0.0
0.002408191240387289 -0.00025947585177420976 0.0
0.0014188535045766644 -0.0002967721382891457 0.0
0.0013640175863827411 -0.0002792057816685766 0.0
0.0014703810062776657 -0.0003116659052614557 0.0
0.0022793835897564666 -0.0003167257397265316 0.0
0.0013645371506395385 -0.00030343766162298116 0.0
0.0013090815156758832 -0.0002845233512403466 0.0
0.001970024637093806 -3.0255962043814815e-5 0.0
0.0013094249242501012 -0.00030824584432848355 0.0
0.0012540697348696211 -0.00028901236367142333 0.0
0.0012545977164782193 -0.0003133082281453584 0.0
0.0011999984455346824 -0.00029229535791661386 0.0
0.0011982728434939696 -0.0002686022469859875 0.0
0.001140998329726149 -0.00027252565306329124 0.0
0.0011401182516799528 -0.0002475028824239709 0.0
0.001194039668850828 -0.00031628993265200986 0.0
0.0010786437960732212 -0.0002516849103153098 0.0
0.0010773090557402003 -0.000226059136193279 0.0
0.0012555886813329523 -0.00033900487375438315 0.0
0.0012040923109203105 -0.00034399366720836404 0.0
0.0010172969267562108 -0.00022823482344736039 0.0
0.0010139315630840996 -0.00020326280420345454 0.0
0.002414639785398904 -0.0002351415287814886 0.0
0.0024751586230700143 -0.00024123231465674795 0.0
0.0012564650898037727 -0.00036502316629533706 0.0
0.001205613541636717 -0.0003698390759628427 0.0
0.002482318253533363 -0.00021614044816836697 0.0
0.0025457326876210146 -0.0002223993149309278 0.0
0.002535878791042892 -0.00024990572185532906 0.0
0.002606881670621524 -0.00022953472561028409 0.0
0.0025981194873207366 -0.00025767658260594984 0.0
0.002669157550004798 -0.00023510100450346673 0.0
0.0026638764528950374 -0.0002629717538053357 0.0
0.0027372418476266196 -0.000237472516001803 0.0
0.00272575870002733 -0.0002659362896838019 0.0
0.0027425283725724904 -0.00021075600381250962 0.0
0.0028001853327561882 -0.00024082296503242495 0.0
0.0027847929705314615 -0.0002691377218221815 0.0
0.0012579331637405191 -0.0003915269447463883 0.0
0.0009507393301707348 -0.00020479169443648923 0.0
0.0009461847946034567 -0.00017944030220467687 0.0
0.002716516428183159 -0.0002950617191513743 0.0
0.0027731933384265153 -0.0002977583334664269 0.0
0.002840355622416772 -0.0002714042603160789 0.0
0.0027097318387049383 -0.00032472167616824703 0.0
0.0012082766728601314 -0.0003964985216891552 0.0
0.0028288146588683464 -0.00029949787996296103 0.0
0.0028944804221500394 -0.0002724344119352272 0.0
0.0012592783356364613 -0.00041877531515696956 0.0