# vtk DataFile Version 2.0
phase field modeling fracture
ASCII
DATASET UNSTRUCTURED_GRID
POINTS 2538 float
0.0 0.0 0.0
10.0 0.0 0.0
0.0 10.0 0.0
10.0 10.0 0.0
0.0 4.9995 0.0
0.0 5.0005 0.0
5.0 5.0 0.0
0.9416964895726688 0.0 0.0
1.803581725054446 0.0 0.0
2.592419885431098 0.0 0.0
3.314401822861676 0.0 0.0
3.975193910351406 0.0 0.0
4.579982132660152 0.0 0.0
5.133512780936812 0.0 0.0
5.640130319506143 0.0 0.0
6.103810708661955 0.0 0.0
6.528192895506818 0.0 0.0
6.916607540127679 0.0 0.0
7.272102969376355 0.0 0.0
7.597469242948583 0.0 0.0
7.895259826292669 0.0 0.0
8.167811885738017 0.0 0.0
8.417264413845215 0.0 0.0
8.645575169389538 0.0 0.0
8.854535961159101 0.0 0.0
9.045786767735546 0.0 0.0
9.220828555767493 0.0 0.0
9.38103509633881 0.0 0.0
9.527663687265145 0.0 0.0
9.661865124984566 0.0 0.0
9.784692609918062 0.0 0.0
9.897110148790482 0.0 0.0
10.0 0.09999999999992584 0.0
10.0 0.199999999999856 0.0
10.0 0.2999999999997771 0.0
10.0 0.3999999999996677 0.0
10.0 0.4999999999995511 0.0
10.0 0.5999999999994683 0.0
10.0 0.6999999999993983 0.0
10.0 0.7999999999993286 0.0
10.0 0.8999999999992587 0.0
10.0 0.9999999999991888 0.0
10.0 1.099999999999119 0.0
10.0 1.199999999999033 0.0
10.0 1.299999999998852 0.0
10.0 1.399999999998576 0.0
10.0 1.499999999998284 0.0
10.0 1.599999999997992 0.0
10.0 1.6999999999977 0.0
10.0 1.799999999997408 0.0
10.0 1.899999999997116 0.0
10.0 1.999999999996825 0.0
10.0 2.099999999996533 0.0
10.0 2.199999999996241 0.0
10.0 2.299999999995949 0.0
10.0 2.399999999995657 0.0
10.0 2.499999999995365 0.0
10.0 2.599999999995073 0.0
10.0 2.699999999994782 0.0
10.0 2.79999999999449 0.0
10.0 2.899999999994198 0.0
10.0 2.999999999993906 0.0
10.0 3.099999999993614 0.0
10.0 3.199999999993322 0.0
10.0 3.299999999993029 0.0
10.0 3.399999999992738 0.0
10.0 3.499999999992446 0.0
10.0 3.599999999992154 0.0
10.0 3.699999999991863 0.0
10.0 3.799999999991571 0.0
10.0 3.899999999991278 0.0
10.0 3.999999999991022 0.0
10.0 4.099999999991035 0.0
10.0 4.199999999991187 0.0
10.0 4.299999999991338 0.0
10.0 4.399999999991491 0.0
10.0 4.499999999991642 0.0
10.0 4.599999999991795 0.0
10.0 4.699999999991947 0.0
10.0 4.799999999992099 0.0
10.0 4.89999999999225 0.0
10.0 4.999999999992403 0.0
10.0 5.099999999992555 0.0
10.0 5.199999999992706 0.0
10.0 5.299999999992858 0.0
10.0 5.39999999999301 0.0
10.0 5.499999999993161 0.0
10.0 5.599999999993313 0.0
10.0 5.699999999993466 0.0
10.0 5.799999999993618 0.0
10.0 5.899999999993771 0.0
10.0 5.999999999993922 0.0
10.0 6.099999999994074 0.0
10.0 6.199999999994227 0.0
10.0 6.299999999994378 0.0
10.0 6.39999999999453 0.0
10.0 6.499999999994682 0.0
10.0 6.599999999994833 0.0
10.0 6.699999999994986 0.0
10.0 6.799999999995138 0.0
10.0 6.899999999995289 0.0
10.0 6.999999999995442 0.0
10.0 7.099999999995594 0.0
10.0 7.199999999995747 0.0
10.0 7.299999999995897 0.0
10.0 7.39999999999605 0.0
10.0 7.499999999996202 0.0
10.0 7.599999999996353 0.0
10.0 7.699999999996505 0.0
10.0 7.799999999996658 0.0
10.0 7.899999999996808 0.0
10.0 7.999999999996962 0.0
10.0 8.099999999997113 0.0
10.0 8.199999999997265 0.0
10.0 8.299999999997418 0.0
10.0 8.399999999997569 0.0
10.0 8.499999999997721 0.0
10.0 8.599999999997873 0.0
10.0 8.699999999998024 0.0
10.0 8.799999999998176 0.0
10.0 8.899999999998329 0.0
10.0 8.99999999999848 0.0
10.0 9.099999999998634 0.0
10.0 9.199999999998786 0.0
10.0 9.299999999998937 0.0
10.0 9.399999999999089 0.0
10.0 9.499999999999241 0.0
10.0 9.599999999999392 0.0
10.0 9.699999999999545 0.0
10.0 9.799999999999697 0.0
10.0 9.899999999999848 0.0
9.897110148790565 10.0 0.0
9.784692609918244 10.0 0.0
9.66186512498486 10.0 0.0
9.527663687265571 10.0 0.0
9.381035096339392 10.0 0.0
9.220828555768257 10.0 0.0
9.045786767736512 10.0 0.0
8.854535961160305 10.0 0.0
8.645575169391027 10.0 0.0
8.417264413847017 10.0 0.0
8.167811885740178 10.0 0.0
7.895259826295246 10.0 0.0
7.597469242951631 10.0 0.0
7.272102969379938 10.0 0.0
6.916607540131873 10.0 0.0
6.528192895511704 10.0 0.0
6.103810708667616 10.0 0.0
5.640130319512691 10.0 0.0
5.13351278094435 10.0 0.0
4.579982132668816 10.0 0.0
3.975193910361222 10.0 0.0
3.314401822869852 10.0 0.0
2.592419885437257 10.0 0.0
1.803581725058137 10.0 0.0
0.9416964895740705 10.0 0.0
0.0 9.00010000000243 0.0
0.0 8.000200000005481 0.0
0.0 7.000300000005135 0.0
0.0 6.000400000002569 0.0
0.901790731451151 5.000409820926855 0.0
1.657200899774397 5.000334279910023 0.0
2.289991063707192 5.000271000893629 0.0
2.820065163538221 5.000217993483646 0.0
3.264096435579811 5.000173590356442 0.0
3.636051481595835 5.00013639485184 0.0
3.947629914072366 5.000105237008593 0.0
4.208632181002628 5.0000791367819 0.0
4.427267949625672 5.000057273205037 0.0
4.610414277633563 5.000038958572237 0.0
4.763831845154243 5.000023616815485 0.0
4.892346298799659 5.00001076537012 0.0
4.892346298799748 4.99998923462988 0.0
4.763831845154455 4.999976383184515 0.0
4.610414277633943 4.999961041427763 0.0
4.427267949626277 4.999942726794963 0.0
4.208632181003523 4.9999208632181 0.0
3.94762991407365 4.999894762991407 0.0
3.636051481597624 4.99986360514816 0.0
3.264096435582253 4.999826409643559 0.0
2.820065163541503 4.999782006516354 0.0
2.289991063711534 4.999728999106371 0.0
1.657200899778495 4.999665720089978 0.0
0.9017907314530094 4.999590179073145 0.0
0.0 3.999600000002013 0.0
0.0 2.999700000005187 0.0
0.0 1.99980000000512 0.0
0.0 0.9999000000025537 0.0
9.897889398521345 2.93573355845387 0.0
9.906568249974548 7.060009441434234 0.0
9.913122631074113 3.64016132281653 0.0
9.922462129543863 6.354535290629151 0.0
9.917693659967533 4.354211663134567 0.0
9.909873057440208 5.637584487339942 0.0
9.914183254994697 4.950672966925282 0.0
9.913885043715895 7.666887930262611 0.0
9.91009668007573 2.351889069770817 0.0
9.905135696074536 8.138152454502785 0.0
9.913397459621809 1.849999999997262 0.0
7.099302372137626 0.297750452375005 0.0
7.095143729410097 9.700359990366296 0.0
4.942912558701401 5.095838627899509 0.0
4.315009232304429 5.165022115481685 0.0
4.946182472483878 4.906763777264103 0.0
4.317967462990024 4.825955043772673 0.0
9.916390871492647 8.64999999999792 0.0
9.921504649680616 1.368376469890358 0.0
8.292538149791614 0.206877570318844 0.0
8.292538149793597 9.793122429681448 0.0
5.884594439766573 9.587645267048616 0.0
5.794826292691579 0.3794853783929359 0.0
9.913397459621425 9.049999999998557 0.0
9.908526577714177 0.9568239351922434 0.0
3.456851160380649 5.315740054130451 0.0
3.457889657868442 4.707121019609468 0.0
8.945214200703926 0.1503383337970344 0.0
8.950161364448409 9.8413906539257 0.0
9.913862335499305 4.055887885208452 0.0
9.916697353372683 4.650158482607802 0.0
9.919076340414442 6.049999999994006 0.0
9.906994308667635 5.25749687748192 0.0
9.917490342358025 6.655979201891897 0.0
9.915757520293784 7.343848891656911 0.0
9.910049507471042 3.363474386285078 0.0
9.914471988502868 2.647400064832979 0.0
9.91474124160965 9.337490423485129 0.0
9.916971008170838 0.6499999999994355 0.0
4.307157269264427 9.509674045029644 0.0
4.331527375865619 0.4401616696422582 0.0
9.45434939180249 9.878397030523757 0.0
9.457696120412969 0.1270877537061785 0.0
2.555070293622606 5.422044496190925 0.0
2.566232917480916 4.608001224030952 0.0
3.026511860837692 9.332320638257093 0.0
2.945561971800619 0.5895662714727601 0.0
7.7395404387124 0.2511088946967771 0.0
7.736379255744154 9.745848826372828 0.0
4.687135269408529 5.122111433928926 0.0
4.688420821504113 4.871895064967488 0.0
9.910554884115975 0.3448356354522978 0.0
9.911230082250466 9.65764729394159 0.0
9.921953841410854 6.851023993342036 0.0
9.912065178606017 5.448170483544033 0.0
9.911660025326261 3.861846960030188 0.0
9.914847467973438 3.14501593945607 0.0
9.913397459621425 5.849999999993703 0.0
9.913397459621425 7.849999999996735 0.0
9.906916878988277 2.15455769998631 0.0
9.913397459621425 8.349999999997479 0.0
9.909472363117661 1.640528221515488 0.0
9.913987325695956 1.152857110636247 0.0
9.913397459621425 8.849999999998241 0.0
0.9100099990995943 2.614215977520411 0.0
0.8395284981715456 7.451196254860987 0.0
9.723278867451556 9.898135916635193 0.0
9.723316350887044 0.09841820909386662 0.0
1.385819164827588 4.454539963646463 0.0
1.338343629665047 5.523111536005823 0.0
1.377179700550677 0.6809168304959698 0.0
1.418060461092743 9.285896715136046 0.0
9.91268220142518 0.1457914080939694 0.0
9.906737126737994 9.845745933882352 0.0
0.7108351382691361 6.537941170074089 0.0
1.527735020267026 6.915620208855231 0.0
1.630993885659103 7.838271825205868 0.0
2.232760943566823 7.370850737296832 0.0
2.243414218068206 6.688299277952821 0.0
2.779655053105118 7.021588754814074 0.0
2.80227799359795 7.632420170547022 0.0
3.282022065908813 7.305859666021318 0.0
3.327597298795347 7.857554136825748 0.0
3.743210251018715 7.549183328204379 0.0
3.716353232200752 7.062036086888612 0.0
4.111978858674101 7.27497101169417 0.0
4.104192177581432 6.879858986267289 0.0
4.436230765617037 7.045693351607117 0.0
4.430360014817357 6.703971783962796 0.0
4.732390145036301 6.849841042423394 0.0
5.056161327708878 5.095276573498806 0.0
5.111586796021131 4.999081142133581 0.0
5.169267363407189 5.09444870412406 0.0
5.223795108752053 4.996986220359468 0.0
5.281480803887719 5.092780870372803 0.0
5.335670761900611 4.994887492556936 0.0
5.393485214772442 5.090486192743301 0.0
5.447323082877892 4.992601527033996 0.0
5.505243219343024 5.087953380710069 0.0
5.558739102026105 4.990287787962959 0.0
5.616491581184779 5.085335255235766 0.0
5.669852346908056 4.9879269227514 0.0
5.727502713908907 5.082679981817038 0.0
5.780766004135139 4.988313988715834 0.0
5.838244881129535 5.080480568766611 0.0
5.891357695677371 4.986433849408193 0.0
5.948696036767613 5.077969900389505 0.0
6.001601341641615 4.981313698556656 0.0
6.058851024265095 5.074871552128682 0.0
6.111614020704875 4.978360695880202 0.0
6.168801161530775 5.072044953270978 0.0
6.221368818778567 4.975825765213497 0.0
6.278268309066882 5.066182320461055 0.0
6.330814273567539 4.972837984645718 0.0
6.387565032421376 5.062889771971895 0.0
6.437476667631405 4.971693683589553 0.0
[...]
POINT_DATA 2538
VECTORS disp float
1.3093491624382505e-11 2.3282868019352618e-11 0.0
9.49278351558373e-12 -2.2238290092599978e-11 0.0
0.0018999999994608662 4.0911799451654855e-12 0.0
0.0018999999758360048 -5.773775640975454e-11 0.0
0.0007882787043187883 0.0003535249330236527 0.0
0.0014359837135426122 4.1431564025482085e-5 0.0
0.0010333256118253834 -1.979344543053178e-5 0.0
-8.02209587570541e-13 -3.4481376471752527e-12 0.0
2.4277229685195437e-12 1.4710466581062092e-12 0.0
1.5552239142672893e-12 -7.167986666928727e-13 0.0
1.4100175888960075e-12 -4.921834229144279e-13 0.0
8.256899908520558e-13 -4.92994652778136e-13 0.0
8.194711915618656e-13 -8.4181458604307e-13 0.0
6.243104417239431e-13 -9.349271636267825e-13 0.0
5.210612908040225e-13 -1.2928067364645835e-12 0.0
3.112526972779624e-13 -1.6425552392004447e-12 0.0
5.080090493092041e-13 -2.1341960742513673e-12 0.0
4.968752091843223e-13 -2.5704915444150643e-12 0.0
6.097993599237298e-13 -3.0022527354708266e-12 0.0
7.253547029488632e-13 -3.414047122719794e-12 0.0
7.471653276823118e-13 -3.62267250419128e-12 0.0
9.586242342666966e-13 -4.029969155998701e-12 0.0
9.528963873898917e-13 -4.127027079986635e-12 0.0
1.0234273185639273e-12 -4.446710287869166e-12 0.0
1.1759230914796155e-12 -4.666183012528348e-12 0.0
1.1604363318610804e-12 -4.85207653930173e-12 0.0
1.252550466319484e-12 -5.129746194478608e-12 0.0
1.3901558771020994e-12 -5.420308243453213e-12 0.0
1.5411267542702457e-12 -5.78495746788012e-12 0.0
1.4655998077656189e-12 -6.227288976308639e-12 0.0
2.3129771092260753e-12 -7.566996960403683e-12 0.0
5.964927041327859e-13 -5.631467715425537e-12 0.0
2.755237555416226e-5 -1.8282352995342604e-5 0.0
4.8395383211385686e-5 -3.164386697246403e-5 0.0
6.882592071258027e-5 -4.344139109988905e-5 0.0
8.807751610803618e-5 -5.429992046733928e-5 0.0
0.00010634479084977176 -6.445485435470634e-5 0.0
0.00012405800865003733 -7.430235757725511e-5 0.0
0.00014156896148116618 -8.365809206552723e-5 0.0
0.00015859666996884003 -9.271243724291214e-5 0.0
0.00017533601601797536 -0.00010158169324133405 0.0
0.00019188817793241693 -0.00011017273079327828 0.0
0.00020819246365528775 -0.00011864292833975608 0.0
0.00022442258836100277 -0.00012692687362255816 0.0
0.0002405110298848686 -0.00013501168412908968 0.0
0.0002565596341973208 -0.00014303248852647705 0.0
0.0002725603006763046 -0.00015089559601233398 0.0
0.0002883645799466926 -0.00015851868201155863 0.0
0.00030415672345381577 -0.00016601065630126506 0.0
0.0003200058110153975 -0.0001732534053595868 0.0
0.0003358326537022954 -0.00018032991185176926 0.0
0.00035168289002506436 -0.0001872570653177102 0.0
0.0003675553845193521 -0.00019404152503123176 0.0
0.00038345865940284704 -0.00020068654891437134 0.0
0.00039949760518561187 -0.00020719983166422762 0.0
0.00041546157276491194 -0.00021358363035966103 0.0
0.0004316182921432423 -0.00021982342512818213 0.0
0.00044771045878448147 -0.00022593403169246518 0.0
0.00046390660397382027 -0.00023194636113575373 0.0
0.0004801528070221359 -0.00023778042360132653 0.0
0.0004965939681058943 -0.00024350271341717794 0.0
0.0005129522266583565 -0.00024916550306128727 0.0
0.0005294936278247181 -0.0002547140735760246 0.0
0.0005460944470403763 -0.0002601202298227432 0.0
0.0005628604984853756 -0.00026546106142876625 0.0
0.0005797298548700026 -0.00027057195130416136 0.0
0.0005968621959372472 -0.0002756918265191966 0.0
0.0006139237136479097 -0.0002805539489370075 0.0
0.0006311207731867773 -0.00028527733751622136 0.0
0.0006484002608642393 -0.0002896269641245243 0.0
0.0006656746062991529 -0.0002937191834425064 0.0
0.0006830209493570581 -0.00029759963426008896 0.0
0.0007003398938078928 -0.0003011341913786025 0.0
0.0007180142383009528 -0.0003045178832545373 0.0
0.0007359736834367508 -0.0003075791389130458 0.0
0.0007541355317861837 -0.0003108090634236495 0.0
0.0007726769920716273 -0.00031360006951012214 0.0
0.0007911867407585197 -0.0003164100438592567 0.0
0.0008096832556533542 -0.0003192353554659939 0.0
0.0008285327774804174 -0.00032149965664803244 0.0
0.0008468815084523619 -0.00032418413001840683 0.0
0.0008661928630194709 -0.00032631156954734654 0.0
0.0008858155853835618 -0.00032870639419438775 0.0
0.0009061803257630123 -0.00033123410965765624 0.0
0.0009264230272709016 -0.0003339153933398614 0.0
0.0009475014135175462 -0.00033636533987882895 0.0
0.0009676841156924457 -0.00033881893038136045 0.0
0.0009887552657286793 -0.0003412989657694445 0.0
0.0010087847916837697 -0.00034357816664354346 0.0
0.0010288094875465826 -0.0003453102062197868 0.0
0.001048601900782017 -0.00034682415689775154 0.0
0.00106833023414429 -0.0003478841862825536 0.0
0.0010873379441046238 -0.0003490016986989519 0.0
0.0011059752657143758 -0.0003499692548694642 0.0
0.0011245075013641228 -0.0003509586439001802 0.0
0.0011427652923601728 -0.0003516435025347854 0.0
0.0011613306026438755 -0.0003522659326591108 0.0
0.0011806241080221864 -0.000352573534773207 0.0
0.0011998061402183132 -0.00035245325450868135 0.0
0.0012184314244002385 -0.00035217809142793714 0.0
0.0012359168347464997 -0.0003511582048177363 0.0
0.00125374053880215 -0.0003500425933144585 0.0
0.001271272164948028 -0.00034858799790702115 0.0
0.0012898040479814915 -0.00034683827071129016 0.0
0.0013075652402637049 -0.00034450684143943875 0.0
0.001325366135646017 -0.00034155228744199947 0.0
0.0013445026187872983 -0.0003377752846695116 0.0
0.0013632251819434905 -0.0003334972037503295 0.0
0.0013825300990418835 -0.000329103886734145 0.0
0.001401076263696808 -0.00032413213863967264 0.0
0.001420032157151399 -0.00031843945838846684 0.0
0.0014383570032438365 -0.000311806953469056 0.0
0.0014579651718562919 -0.00030502335410145646 0.0
0.001476260054587745 -0.00029751156202180933 0.0
0.0014953986661217441 -0.0002901238713344957 0.0
0.001515264375739387 -0.00028193830889959234 0.0
0.001534251484912787 -0.00027345716593223964 0.0
0.0015531821510600826 -0.00026467428354114305 0.0
0.0015726582625768442 -0.00025468250136109776 0.0
0.0015918553568421096 -0.0002436751216484776 0.0
0.0016110990531105153 -0.00023191599314548996 0.0
0.0016310914055917925 -0.00021921633717984687 0.0
0.0016519609923283862 -0.00020522319277604525 0.0
0.0016733767302126391 -0.0001901519197952316 0.0
0.0016953876865012764 -0.00017421371457803248 0.0
0.0017184739964325644 -0.00015716586655848642 0.0
0.0017431610463215963 -0.00013870214599361646 0.0
0.0017691068412774625 -0.0001186972288239359 0.0
0.0017966176388543357 -9.666549278137347e-5 0.0
0.0018271395968189933 -7.143729123223978e-5 0.0
0.0018596472188162506 -4.1822023209571946e-5 0.0
0.001899999998664709 -6.380742523100649e-12 0.0
0.0018999999953195235 -9.258663750190974e-12 0.0
0.0018999999981705374 -2.8993329895929318e-12 0.0
0.0018999999975450972 -2.5740472865520445e-12 0.0
0.0018999999979921515 -1.4189437437127667e-12 0.0
0.0018999999979950053 -7.603460227445228e-13 0.0
0.0018999999979964909 -3.679107114591336e-13 0.0
0.0018999999981225838 -1.0412853304192786e-13 0.0
0.0018999999981191551 1.355509892115056e-13 0.0
0.0018999999982068148 2.6422274834785034e-13 0.0
0.0018999999982678788 3.6489187332952607e-13 0.0
0.0018999999983930474 5.082291752761059e-13 0.0
0.0018999999984123765 6.58658775427699e-13 0.0
0.0018999999984638828 8.60234366211226e-13 0.0
0.0018999999984773259 1.0726637075842382e-12 0.0
0.0018999999984862152 1.323437836785082e-12 0.0
0.0018999999984909701 1.564130437929489e-12 0.0
0.0018999999984214027 1.8708172670581133e-12 0.0
0.0018999999985502725 2.0780187168690045e-12 0.0
0.001899999998450423 2.3145435970721785e-12 0.0
0.0018999999985404494 2.4208395625649136e-12 0.0
0.0018999999985332215 2.361923012071286e-12 0.0
0.0018999999987635411 2.2161542210457717e-12 0.0
0.0018999999992086116 2.4232403689350595e-12 0.0
0.00189999999953379 1.687051233784731e-12 0.0
0.0017782636228857766 4.121516743856956e-5 0.0
0.0016699422307654677 5.860235114999394e-5 0.0
0.001574160131215745 5.671181886993234e-5 0.0
0.0014848359619242777 4.81112251126226e-5 0.0
0.001431842745712334 -2.1437346271610897e-5 0.0
0.0014265597345860628 -5.8965628187629494e-5 0.0
0.0014196348912507374 -9.672134753518644e-5 0.0
0.0014030171515353848 -0.00011926740795111149 0.0
0.0013778547944116393 -0.0001293278299740897 0.0
0.0013470504020828887 -0.00012991451380922178 0.0
0.0013124798769585404 -0.00012432946208440658 0.0
0.0012764577260877227 -0.00011211987326020766 0.0
0.0012385750423023517 -9.715891121549932e-5 0.0
0.001199342624837618 -8.063618594207748e-5 0.0
0.0011562153842884192 -6.27029787063366e-5 0.0
0.0011049494318888112 -4.377707944704997e-5 0.0
0.0009875528507835023 2.2414883181790135e-5 0.0
0.0009540009773284878 4.5409256397757394e-5 0.0
0.0009253278776001848 6.323219487763877e-5 0.0
0.0008994997867066776 7.980450699197646e-5 0.0
0.0008752682667118875 9.588743632182636e-5 0.0
0.0008531017958504108 0.00011210615101676177 0.0
0.0008325179648993868 0.00012931012303123518 0.0
0.0008143631829172901 0.00014645545048759865 0.0
0.000800498788237974 0.00016812190465127964 0.0
0.0007888399888871386 0.00018730449245272772 0.0
0.0007878623873005522 0.00022457661975886439 0.0
0.0007828512794700662 0.00026886922647022563 0.0
0.0007098097136005043 0.0003619557670241964 0.0
0.0006118241419515647 0.0003578629754706994 0.0
0.00047186199315061406 0.0003089288789560074 0.0
0.0002769105947289022 0.0002052726728793591 0.0
0.0004989493173410765 -0.00023615270091835284 0.0
0.0012657741718255131 -0.0003313010007943427 0.0
0.0006185029403940664 -0.000272513414601798 0.0
0.001134383962334239 -0.00033969844669124734 0.0
0.0007442469129268053 -0.00029959061064324926 0.0
0.0009948212349533878 -0.00032949716959711613 0.0
0.0008555923132600845 -0.00031508369652436403 0.0
0.00137930741663336 -0.00030891710953701924 0.0
0.00040430286979227064 -0.00020241761472595835 0.0
0.0014699133720511976 -0.00027459907790824723 0.0
0.0003242066430597442 -0.00016892444461551493 0.0
3.1367560454482865e-5 -8.009344771467004e-6 0.0
0.0018581568280736187 1.2107453024013112e-8 0.0
0.0010965136197314716 -1.648505165123752e-5 0.0
0.00124199224516524 -8.820512619804153e-5 0.0
0.0009567401496152285 1.4445758021149743e-5 0.0
0.000860151648431285 9.732145420168685e-5 0.0
0.0015681220525827866 -0.00023383048454456322 0.0
0.0002476843025953345 -0.00013341845321887403 0.0
2.652898336779104e-5 -8.133480828995492e-6 0.0
0.0018695580576343462 -1.910892959726641e-6 0.0
0.001841626745070993 3.7189259276261007e-6 0.0
3.680031325911138e-5 -2.953841286578667e-6 0.0
0.0016489643414494097 -0.00018484517970606475 0.0
0.000180057207910593 -9.794914462498978e-5 0.0
0.0013439981842193617 -0.00011046351649673369 0.0
0.0007877394066205668 0.00014505853382548598 0.0
2.1367235888231922e-5 -6.82850054828804e-6 0.0
0.0018757955616274828 -2.3945213475204867e-6 0.0
0.0006910382094689396 -0.0002890697330790313 0.0
0.0007990879221243169 -0.0003083541468559702 0.0
0.0010773577977928259 -0.0003369111642881297 0.0
0.0009160863350196621 -0.00032097591996771066 0.0
0.0011916823474713938 -0.0003385561836140583 0.0
0.0013176435170718908 -0.00032447086605599985 0.0
0.0005709370677694456 -0.00025963344013107416 0.0
0.00045225674631263685 -0.0002210341762613188 0.0
0.0017125039171442457 -0.00014111973366641046 0.0
0.000128267876694298 -7.06322195778699e-5 0.0
0.0018286861584860931 7.357490935335124e-6 0.0
5.245450224633821e-5 2.790879845570872e-6 0.0
0.0018806115123801836 -4.341008016395269e-6 0.0
2.0172266163835254e-5 -6.97828092412669e-6 0.0
0.0014088581498365252 -9.608778760517698e-5 0.0
0.0007560007900137773 0.00018060292763793205 0.0
0.0018066689419443279 7.745141378240007e-6 0.0
8.560652437942478e-5 7.808392817087422e-6 0.0
2.955829649904596e-5 -8.670173247223847e-6 0.0
0.001863790376100844 -1.3521807836634695e-6 0.0
0.0011697413592950828 -5.586191498428634e-5 0.0
0.0009104893242957263 6.284455472312773e-5 0.0
7.205108394473049e-5 -3.8528105589677146e-5 0.0
0.0017953833980275072 -7.897348017484619e-5 0.0
0.0012282753405098007 -0.00033809897237901043 0.0
0.0009557292913402856 -0.0003260114693720329 0.0
0.000657099118230687 -0.00028149833560033125 0.0
0.0005342389567516075 -0.00024909245908249014 0.0
0.0010378257920370438 -0.0003335876760307184 0.0
0.0014144559588547077 -0.00029825973267433466 0.0
0.00037248141093971154 -0.0001892758479889037 0.0
0.0015097873288780449 -0.0002597989302625721 0.0
0.00029064283685517936 -0.00015333545924768428 0.0
0.0002124867244472441 -0.00011520241578833295 0.0
0.0016078313419234786 -0.00021087905027701784 0.0
0.0005255426826613886 0.00019346047197790826 0.0
0.0016033627542940616 1.017771847552255e-5 0.0
0.0018801927981470846 -8.608124804223335e-6 0.0
1.7159741795302182e-5 -6.5893407145870555e-6 0.0
0.0007442866081436313 0.00024122871313137883 0.0
0.0014440666731958501 -3.9181773260532404e-5 0.0
0.00011377728583848392 1.7179598628824282e-5 0.0
0.0018171631323680962 7.801544336163921e-6 0.0
3.16024400838288e-5 -1.579231869590339e-5 0.0
0.0018538652076692573 -3.328292702330515e-5 0.0
0.0015225942147794953 4.968518937171025e-7 0.0
0.001531596292420995 -1.8663546125052117e-5 0.0
0.001630744526176259 -1.8785284394585813e-6 0.0
0.0015572752839842705 -1.4521644856867544e-5 0.0
0.0014806849572967368 -3.7171505626447226e-5 0.0
0.00149219420861396 -2.2816179282113352e-5 0.0
0.0015704684625985489 -4.811434127903663e-6 0.0
0.0015083312878341262 -6.000099925676348e-6 0.0
0.0015872583654762578 5.967021717155412e-6 0.0
0.0015294201799493296 8.461531315491995e-6 0.0
0.0014565757796480908 -3.026131500517096e-6 0.0
0.0014761363438022957 1.2215855537895994e-5 0.0
0.00141382690021771 3.747288433045133e-6 0.0
0.0014303103237091148 1.623766829486834e-5 0.0
0.0013747945592634142 1.0539147007452562e-5 0.0
0.001390860628341456 2.0113633323996032e-5 0.0
0.0010754546259857908 -2.3313320741037352e-5 0.0
0.0010206903125782763 -3.460497763483887e-5 0.0
0.0010558646629136325 -3.149396718497954e-5 0.0
0.001009040441512057 -4.247416591859851e-5 0.0
0.0010410128894927687 -3.9763478876784335e-5 0.0
0.0009996056136786816 -4.900536912408272e-5 0.0
0.001028349590707794 -4.57801314466305e-5 0.0
0.0009904920836778896 -5.410267124925761e-5 0.0
0.0010169442887352112 -5.059865620519799e-5 0.0
0.0009817735571012226 -5.838622739064927e-5 0.0
0.001006601331655627 -5.464059599576029e-5 0.0
0.0009735832109215268 -6.195798623857349e-5 0.0
0.0009972318378242172 -5.854546848589435e-5 0.0
0.0009667075559332537 -6.501552140970254e-5 0.0
0.0009886015750457044 -6.16316789979483e-5 0.0
0.0009593791065442534 -6.787802249891814e-5 0.0
0.0009804265581130288 -6.461448776255452e-5 0.0
0.0009515671348710518 -7.073586390837556e-5 0.0
0.000972704241848809 -6.758651169549003e-5 0.0
0.0009448582783382259 -7.325223878488176e-5 0.0
0.0009656219649347206 -7.038164283873243e-5 0.0
0.0009385742267934279 -7.577862444392963e-5 0.0
0.0009581786599381715 -7.318958999716602e-5 0.0
0.0009323280890808456 -7.846220217079723e-5 0.0
0.0009516558876060026 -7.615938878416154e-5 0.0
0.000926911892290264 -8.120925005855175e-5 0.0
0.000945504397299393 -7.92400111902989e-5 0.0
0.0009203602407430507 -8.426627589309824e-5 0.0
0.0009393417212294349 -8.259839737942593e-5 0.0
0.0009093727914185289 -8.838084539870737e-5 0.0
0.0009348493248867403 -8.603041260335444e-5 0.0
0.000909108218655099 -9.114069772284048e-5 0.0
0.000929344151054734 -8.97884059236304e-5 0.0
0.0009048475006893629 -9.482548912489727e-5 0.0
0.0009243726690025639 -9.384459562335934e-5 0.0
0.0009014777184828982 -9.859979656958543e-5 0.0
0.0009195241171454988 -9.807961576867439e-5 0.0
0.0008972121046345686 -0.00010280993275298136 0.0
0.0009562102342071083 -5.964850614136356e-5 0.0
0.0009148376529608055 -0.0001025987369258982 0.0
0.000923490359997675 -7.568054566200265e-5 0.0
0.0008846050631293883 -9.387952243759363e-5 0.0
0.0008915408515573467 -0.00010744849233135203 0.0
0.0009101992321830779 -0.00010742788389567226 0.0
0.0008860137171297273 -0.00011246782210101745 0.0
0.0008679808030646876 -0.00011190501371590881 0.0
0.0008619343356795169 -0.00011705841959914681 0.0
0.0009047324612824368 -0.00011284493041223314 0.0
0.0009293120590257777 -0.00010749228014813706 0.0
0.0009531010109026128 -8.459333672054052e-5 0.0
0.0009239924044921684 -0.00011325401638574728 0.0
0.0009502707186906851 -0.00010710942505154822 0.0
0.0009439856144120593 -0.0001137352459803091 0.0
0.0008441444849337698 -0.00011624339621134657 0.0
0.0008391697820291558 -0.00012107350175632739 0.0
0.0009711778947306107 -0.00010711156870288283 0.0
0.0008201280002748555 -0.00012010957507795094 0.0
0.0008164854476325053 -0.00012493333351089664 0.0
0.0009654118820315533 -0.00011402510429337987 0.0
0.0009916321485532926 -0.00010773001551023424 0.0
0.0007960451108589334 -0.00012375051951322134 0.0
0.0007919929383745371 -0.00012860463071869276 0.0
0.0009865696822078677 -0.00011480778920824562 0.0
0.0010135734635352582 -0.00010816345585410964 0.0
0.0007721364728977139 -0.00012707052749602962 0.0
0.000767898465466814 -0.00013213273865444206 0.0
0.0010083977972265507 -0.00011585632542385331 0.0
0.0010362706975186697 -0.00010867919971073346 0.0
0.000748538370620466 -0.00012990790850913849 0.0
0.0007429304567935633 -0.00013504154857594798 0.0
0.0010314242017615187 -0.0001167829679980627 0.0
0.0010595490398063276 -0.0001092602123724891 0.0
0.000722712159604685 -0.0001325028119219011 0.0
0.0007177857794568856 -0.0001377354650343465 0.0
0.0006959421789664737 -0.0001350501448319869 0.0
0.0007010404956802354 -0.00012976503098598613 0.0
0.0010014692790492334 -0.00012366113329990527 0.0
0.0010545575356593112 -0.00011798003057133266 0.0
0.0010834216250542367 -0.00010996685534111175 0.0
0.0010891379110945596 -0.00010078440684858781 0.0
0.0009830760575480955 -6.78551155177092e-5 0.0
0.001114220285835684 -0.00010115270343343162 0.0
0.0011204622657989553 -9.149510678252453e-5 0.0
0.0011466806916114246 -9.139486879018888e-5 0.0
0.0006930803410392501 -0.00014055337739239253 0.0
0.0006701826811445817 -0.00013705719889289136 0.0
0.0007146151789543535 -0.00014349592616463448 0.0
0.0010775792435993516 -0.000119500694153738 0.0
0.0006678259069972687 -0.0001426425245128723 0.0
0.0006444481989420812 -0.00013859758947725934 0.0
0.0010184810925342 -5.421727813250973e-5 0.0
0.0006423644694423007 -0.0001439213242064884 0.0
0.0006187456104999735 -0.0001395277034446923 0.0
0.0006169752142737145 -0.00014489405622985325 0.0
0.0005935856694272145 -0.0001398320414201583 0.0
0.0005947670386770173 -0.0001347829716028962 0.0
0.0005676845789598686 -0.00013490310657558337 0.0
0.000569256343417653 -0.00012965344666331698 0.0
0.0005891139015729766 -0.00014498597359630002 0.0
0.0005398479643403893 -0.00012935309697230014 0.0
0.0005411218330768015 -0.0001240965003306891 0.0
0.0006156194049077264 -0.0001507243040046293 0.0
0.0005919466060866122 -0.0001513448712508995 0.0
0.0005122054947594241 -0.00012300689101357566 0.0
0.0005121647232759278 -0.00011775918464461365 0.0
0.00115381250302884 -8.157902758187102e-5 0.0
0.0011814201549940004 -8.121007496646627e-5 0.0
0.000614460312946919 -0.0001568350778074249 0.0
0.0005913281164373509 -0.00015732232927051767 0.0
0.001188963181250282 -7.11403207971505e-5 0.0
0.0012182008755008715 -7.073175315117998e-5 0.0
0.0012091020675747105 -8.210577418817989e-5 0.0
0.0012466566037883106 -7.105798166108895e-5 0.0
0.0012381403595659235 -8.292364045209651e-5 0.0
0.0012764042280484736 -7.10581496001158e-5 0.0
0.0012697895946371836 -8.297245470508327e-5 0.0
0.00130997909518458 -6.994784234377744e-5 0.0
0.0013003355798910704 -8.25091888735773e-5 0.0
0.0013160331383427885 -5.8967655900704666e-5 0.0
0.001341211767846745 -6.979238234277162e-5 0.0
0.0013298657232042883 -8.274202216228331e-5 0.0
0.0006138360592292466 -0.00016322726802766904 0.0
0.0004813583122729296 -0.00011603237257706617 0.0
0.000480348805298152 -0.00011041683031000579 0.0
0.0012916850876641978 -9.62001045868264e-5 0.0
0.0013202301748697922 -9.660187727126631e-5 0.0
0.001358244827399985 -8.307564357041217e-5 0.0
0.0012842718721109746 -0.00011075841567608475 0.0
0.0005914530863045768 -0.00016366308326219795 0.0
0.0013488960789308428 -9.716107058936641e-5 0.0
0.001386396245703878 -8.340458484658185e-5 0.0