# vtk DataFile Version 2.0
phase field modeling fracture
ASCII
DATASET UNSTRUCTURED_GRID
POINTS 2538 float
0.0 0.0 0.0
10.0 0.0 0.0
0.0 10.0 0.0
10.0 10.0 0.0
0.0 4.9995 0.0
0.0 5.0005 0.0
5.0 5.0 0.0
0.9416964895726688 0.0 0.0
1.803581725054446 0.0 0.0
2.592419885431098 0.0 0.0
3.314401822861676 0.0 0.0
3.975193910351406 0.0 0.0
4.579982132660152 0.0 0.0
5.133512780936812 0.0 0.0
5.640130319506143 0.0 0.0
6.103810708661955 0.0 0.0
6.528192895506818 0.0 0.0
6.916607540127679 0.0 0.0
7.272102969376355 0.0 0.0
7.597469242948583 0.0 0.0
7.895259826292669 0.0 0.0
8.167811885738017 0.0 0.0
8.417264413845215 0.0 0.0
8.645575169389538 0.0 0.0
8.854535961159101 0.0 0.0
9.045786767735546 0.0 0.0
9.220828555767493 0.0 0.0
9.38103509633881 0.0 0.0
9.527663687265145 0.0 0.0
9.661865124984566 0.0 0.0
9.784692609918062 0.0 0.0
9.897110148790482 0.0 0.0
10.0 0.09999999999992584 0.0
10.0 0.199999999999856 0.0
10.0 0.2999999999997771 0.0
10.0 0.3999999999996677 0.0
10.0 0.4999999999995511 0.0
10.0 0.5999999999994683 0.0
10.0 0.6999999999993983 0.0
10.0 0.7999999999993286 0.0
10.0 0.8999999999992587 0.0
10.0 0.9999999999991888 0.0
10.0 1.099999999999119 0.0
10.0 1.199999999999033 0.0
10.0 1.299999999998852 0.0
10.0 1.399999999998576 0.0
10.0 1.499999999998284 0.0
10.0 1.599999999997992 0.0
10.0 1.6999999999977 0.0
10.0 1.799999999997408 0.0
10.0 1.899999999997116 0.0
10.0 1.999999999996825 0.0
10.0 2.099999999996533 0.0
10.0 2.199999999996241 0.0
10.0 2.299999999995949 0.0
10.0 2.399999999995657 0.0
10.0 2.499999999995365 0.0
10.0 2.599999999995073 0.0
10.0 2.699999999994782 0.0
10.0 2.79999999999449 0.0
10.0 2.899999999994198 0.0
10.0 2.999999999993906 0.0
10.0 3.099999999993614 0.0
10.0 3.199999999993322 0.0
10.0 3.299999999993029 0.0
10.0 3.399999999992738 0.0
10.0 3.499999999992446 0.0
10.0 3.599999999992154 0.0
10.0 3.699999999991863 0.0
10.0 3.799999999991571 0.0
10.0 3.899999999991278 0.0
10.0 3.999999999991022 0.0
10.0 4.099999999991035 0.0
10.0 4.199999999991187 0.0
10.0 4.299999999991338 0.0
10.0 4.399999999991491 0.0
10.0 4.499999999991642 0.0
10.0 4.599999999991795 0.0
10.0 4.699999999991947 0.0
10.0 4.799999999992099 0.0
10.0 4.89999999999225 0.0
10.0 4.999999999992403 0.0
10.0 5.099999999992555 0.0
10.0 5.199999999992706 0.0
10.0 5.299999999992858 0.0
10.0 5.39999999999301 0.0
10.0 5.499999999993161 0.0
10.0 5.599999999993313 0.0
10.0 5.699999999993466 0.0
10.0 5.799999999993618 0.0
10.0 5.899999999993771 0.0
10.0 5.999999999993922 0.0
10.0 6.099999999994074 0.0
10.0 6.199999999994227 0.0
10.0 6.299999999994378 0.0
10.0 6.39999999999453 0.0
10.0 6.499999999994682 0.0
10.0 6.599999999994833 0.0
10.0 6.699999999994986 0.0
10.0 6.799999999995138 0.0
10.0 6.899999999995289 0.0
10.0 6.999999999995442 0.0
10.0 7.099999999995594 0.0
10.0 7.199999999995747 0.0
10.0 7.299999999995897 0.0
10.0 7.39999999999605 0.0
10.0 7.499999999996202 0.0
10.0 7.599999999996353 0.0
10.0 7.699999999996505 0.0
10.0 7.799999999996658 0.0
10.0 7.899999999996808 0.0
10.0 7.999999999996962 0.0
10.0 8.099999999997113 0.0
10.0 8.199999999997265 0.0
10.0 8.299999999997418 0.0
10.0 8.399999999997569 0.0
10.0 8.499999999997721 0.0
10.0 8.599999999997873 0.0
10.0 8.699999999998024 0.0
10.0 8.799999999998176 0.0
10.0 8.899999999998329 0.0
10.0 8.99999999999848 0.0
10.0 9.099999999998634 0.0
10.0 9.199999999998786 0.0
10.0 9.299999999998937 0.0
10.0 9.399999999999089 0.0
10.0 9.499999999999241 0.0
10.0 9.599999999999392 0.0
10.0 9.699999999999545 0.0
10.0 9.799999999999697 0.0
10.0 9.899999999999848 0.0
9.897110148790565 10.0 0.0
9.784692609918244 10.0 0.0
9.66186512498486 10.0 0.0
9.527663687265571 10.0 0.0
9.381035096339392 10.0 0.0
9.220828555768257 10.0 0.0
9.045786767736512 10.0 0.0
8.854535961160305 10.0 0.0
8.645575169391027 10.0 0.0
8.417264413847017 10.0 0.0
8.167811885740178 10.0 0.0
7.895259826295246 10.0 0.0
7.597469242951631 10.0 0.0
7.272102969379938 10.0 0.0
6.916607540131873 10.0 0.0
6.528192895511704 10.0 0.0
6.103810708667616 10.0 0.0
5.640130319512691 10.0 0.0
5.13351278094435 10.0 0.0
4.579982132668816 10.0 0.0
3.975193910361222 10.0 0.0
3.314401822869852 10.0 0.0
2.592419885437257 10.0 0.0
1.803581725058137 10.0 0.0
0.9416964895740705 10.0 0.0
0.0 9.00010000000243 0.0
0.0 8.000200000005481 0.0
0.0 7.000300000005135 0.0
0.0 6.000400000002569 0.0
0.901790731451151 5.000409820926855 0.0
1.657200899774397 5.000334279910023 0.0
2.289991063707192 5.000271000893629 0.0
2.820065163538221 5.000217993483646 0.0
3.264096435579811 5.000173590356442 0.0
3.636051481595835 5.00013639485184 0.0
3.947629914072366 5.000105237008593 0.0
4.208632181002628 5.0000791367819 0.0
4.427267949625672 5.000057273205037 0.0
4.610414277633563 5.000038958572237 0.0
4.763831845154243 5.000023616815485 0.0
4.892346298799659 5.00001076537012 0.0
4.892346298799748 4.99998923462988 0.0
4.763831845154455 4.999976383184515 0.0
4.610414277633943 4.999961041427763 0.0
4.427267949626277 4.999942726794963 0.0
4.208632181003523 4.9999208632181 0.0
3.94762991407365 4.999894762991407 0.0
3.636051481597624 4.99986360514816 0.0
3.264096435582253 4.999826409643559 0.0
2.820065163541503 4.999782006516354 0.0
2.289991063711534 4.999728999106371 0.0
1.657200899778495 4.999665720089978 0.0
0.9017907314530094 4.999590179073145 0.0
0.0 3.999600000002013 0.0
0.0 2.999700000005187 0.0
0.0 1.99980000000512 0.0
0.0 0.9999000000025537 0.0
9.897889398521345 2.93573355845387 0.0
9.906568249974548 7.060009441434234 0.0
9.913122631074113 3.64016132281653 0.0
9.922462129543863 6.354535290629151 0.0
9.917693659967533 4.354211663134567 0.0
9.909873057440208 5.637584487339942 0.0
9.914183254994697 4.950672966925282 0.0
9.913885043715895 7.666887930262611 0.0
9.91009668007573 2.351889069770817 0.0
9.905135696074536 8.138152454502785 0.0
9.913397459621809 1.849999999997262 0.0
7.099302372137626 0.297750452375005 0.0
7.095143729410097 9.700359990366296 0.0
4.942912558701401 5.095838627899509 0.0
4.315009232304429 5.165022115481685 0.0
4.946182472483878 4.906763777264103 0.0
4.317967462990024 4.825955043772673 0.0
9.916390871492647 8.64999999999792 0.0
9.921504649680616 1.368376469890358 0.0
8.292538149791614 0.206877570318844 0.0
8.292538149793597 9.793122429681448 0.0
5.884594439766573 9.587645267048616 0.0
5.794826292691579 0.3794853783929359 0.0
9.913397459621425 9.049999999998557 0.0
9.908526577714177 0.9568239351922434 0.0
3.456851160380649 5.315740054130451 0.0
3.457889657868442 4.707121019609468 0.0
8.945214200703926 0.1503383337970344 0.0
8.950161364448409 9.8413906539257 0.0
9.913862335499305 4.055887885208452 0.0
9.916697353372683 4.650158482607802 0.0
9.919076340414442 6.049999999994006 0.0
9.906994308667635 5.25749687748192 0.0
9.917490342358025 6.655979201891897 0.0
9.915757520293784 7.343848891656911 0.0
9.910049507471042 3.363474386285078 0.0
9.914471988502868 2.647400064832979 0.0
9.91474124160965 9.337490423485129 0.0
9.916971008170838 0.6499999999994355 0.0
4.307157269264427 9.509674045029644 0.0
4.331527375865619 0.4401616696422582 0.0
9.45434939180249 9.878397030523757 0.0
9.457696120412969 0.1270877537061785 0.0
2.555070293622606 5.422044496190925 0.0
2.566232917480916 4.608001224030952 0.0
3.026511860837692 9.332320638257093 0.0
2.945561971800619 0.5895662714727601 0.0
7.7395404387124 0.2511088946967771 0.0
7.736379255744154 9.745848826372828 0.0
4.687135269408529 5.122111433928926 0.0
4.688420821504113 4.871895064967488 0.0
9.910554884115975 0.3448356354522978 0.0
9.911230082250466 9.65764729394159 0.0
9.921953841410854 6.851023993342036 0.0
9.912065178606017 5.448170483544033 0.0
9.911660025326261 3.861846960030188 0.0
9.914847467973438 3.14501593945607 0.0
9.913397459621425 5.849999999993703 0.0
9.913397459621425 7.849999999996735 0.0
9.906916878988277 2.15455769998631 0.0
9.913397459621425 8.349999999997479 0.0
9.909472363117661 1.640528221515488 0.0
9.913987325695956 1.152857110636247 0.0
9.913397459621425 8.849999999998241 0.0
0.9100099990995943 2.614215977520411 0.0
0.8395284981715456 7.451196254860987 0.0
9.723278867451556 9.898135916635193 0.0
9.723316350887044 0.09841820909386662 0.0
1.385819164827588 4.454539963646463 0.0
1.338343629665047 5.523111536005823 0.0
1.377179700550677 0.6809168304959698 0.0
1.418060461092743 9.285896715136046 0.0
9.91268220142518 0.1457914080939694 0.0
9.906737126737994 9.845745933882352 0.0
0.7108351382691361 6.537941170074089 0.0
1.527735020267026 6.915620208855231 0.0
1.630993885659103 7.838271825205868 0.0
2.232760943566823 7.370850737296832 0.0
2.243414218068206 6.688299277952821 0.0
2.779655053105118 7.021588754814074 0.0
2.80227799359795 7.632420170547022 0.0
3.282022065908813 7.305859666021318 0.0
3.327597298795347 7.857554136825748 0.0
3.743210251018715 7.549183328204379 0.0
3.716353232200752 7.062036086888612 0.0
4.111978858674101 7.27497101169417 0.0
4.104192177581432 6.879858986267289 0.0
4.436230765617037 7.045693351607117 0.0
4.430360014817357 6.703971783962796 0.0
4.732390145036301 6.849841042423394 0.0
5.056161327708878 5.095276573498806 0.0
5.111586796021131 4.999081142133581 0.0
5.169267363407189 5.09444870412406 0.0
5.223795108752053 4.996986220359468 0.0
5.281480803887719 5.092780870372803 0.0
5.335670761900611 4.994887492556936 0.0
5.393485214772442 5.090486192743301 0.0
5.447323082877892 4.992601527033996 0.0
5.505243219343024 5.087953380710069 0.0
5.558739102026105 4.990287787962959 0.0
5.616491581184779 5.085335255235766 0.0
5.669852346908056 4.9879269227514 0.0
5.727502713908907 5.082679981817038 0.0
5.780766004135139 4.988313988715834 0.0
5.838244881129535 5.080480568766611 0.0
5.891357695677371 4.986433849408193 0.0
5.948696036767613 5.077969900389505 0.0
6.001601341641615 4.981313698556656 0.0
6.058851024265095 5.074871552128682 0.0
6.111614020704875 4.978360695880202 0.0
6.168801161530775 5.072044953270978 0.0
6.221368818778567 4.975825765213497 0.0
6.278268309066882 5.066182320461055 0.0
6.330814273567539 4.972837984645718 0.0
6.387565032421376 5.062889771971895 0.0
6.437476667631405 4.971693683589553 0.0
[...]
POINT_DATA 2538
VECTORS disp float
2.0320338920351715e-11 5.3645884076377385e-11 0.0
4.370792130409712e-11 -1.1965247176777238e-10 0.0
0.004899999982067837 4.8901044676920613e-11 0.0
0.0048999999557726845 -1.2230224902365975e-10 0.0
0.00153260623048548 0.0006465961272551346 0.0
0.0035274681587115883 0.00045424183311842454 0.0
0.0024160642335357306 0.00016084151106095495 0.0
6.00593674392703e-12 6.5490571240286205e-12 0.0
1.0657987799875123e-11 1.350620306378622e-11 0.0
1.000342220169466e-11 8.682045781577732e-12 0.0
1.0008330205621513e-11 8.111873898128237e-12 0.0
9.591308285928322e-12 6.231199765726845e-12 0.0
9.110040646002253e-12 4.660178505899048e-12 0.0
8.668486035503413e-12 2.903738735353387e-12 0.0
8.306264702618113e-12 1.0243376143262156e-12 0.0
7.40533269911772e-12 -1.0584348199426134e-12 0.0
7.73983707099864e-12 -2.895338218265221e-12 0.0
7.371338037620486e-12 -4.9634240135516044e-12 0.0
7.277243847718836e-12 -7.15122880568939e-12 0.0
7.379774169366361e-12 -9.320504503658982e-12 0.0
7.226947733777823e-12 -1.140596215020986e-11 0.0
7.52224994349106e-12 -1.3886951093489088e-11 0.0
7.456856663315227e-12 -1.603703618517129e-11 0.0
7.802467247904326e-12 -1.8503319765530348e-11 0.0
7.858392516550603e-12 -2.1337854252825744e-11 0.0
8.134445156749024e-12 -2.3978078300455182e-11 0.0
8.413996485734684e-12 -2.709123824839374e-11 0.0
8.794065295097503e-12 -3.053924464164375e-11 0.0
9.559425954231309e-12 -3.4601620985125736e-11 0.0
9.515255591392222e-12 -3.890125128573266e-11 0.0
1.2782778156407887e-11 -4.835875356506852e-11 0.0
5.3032451225581245e-12 -4.455348506189187e-11 0.0
5.995217626841329e-5 -8.251625798459933e-5 0.0
0.00010323939702677698 -0.00014297158623844961 0.0
0.00014520871151066437 -0.00019589009923058457 0.0
0.00018545536564250293 -0.00024414711879781496 0.0
0.00022453117532804338 -0.0002891057578328406 0.0
0.0002632601181014603 -0.00033181507385800143 0.0
0.00030227387681009836 -0.0003724646321995583 0.0
0.00034119878553022954 -0.0004113528995406793 0.0
0.00038036882327562645 -0.00044880261112868915 0.0
0.00041986688966158363 -0.00048482831972471613 0.0
0.0004597202298123925 -0.0005197143739552284 0.0
0.000500205582199994 -0.0005534885394955576 0.0
0.0005410130530497818 -0.0005861434186851294 0.0
0.0005823560369777267 -0.000617910734083652 0.0
0.0006244645527730912 -0.0006487612309450354 0.0
0.0006668780756930791 -0.0006786390719861705 0.0
0.0007098863598045278 -0.0007077093291739036 0.0
0.0007534677363981969 -0.0007358496367238877 0.0
0.0007975950173576019 -0.0007632052628360639 0.0
0.0008422882007724671 -0.0007897774834116877 0.0
0.0008875999531042223 -0.0008155705576159477 0.0
0.0009334136283930698 -0.0008405572694054551 0.0
0.0009799932420440657 -0.0008648713532234751 0.0
0.0010269175616363414 -0.0008883467644170118 0.0
0.0010746560967020472 -0.0009111261254467523 0.0
0.0011227001659343825 -0.0009330788384908104 0.0
0.0011713755502578188 -0.0009543417408209601 0.0
0.0012205127871006667 -0.0009747620414314321 0.0
0.0012703639758874516 -0.0009945285548498195 0.0
0.0013204920690932725 -0.0010134902344032034 0.0
0.0013713162742431421 -0.0010317596686674878 0.0
0.0014225584048918524 -0.0010491991073892863 0.0
0.001474329346148264 -0.0010659027718490416 0.0
0.00152647177113383 -0.0010818046778385089 0.0
0.0015792613788071525 -0.0010969949181993672 0.0
0.0016322765473563228 -0.00111132912785828 0.0
0.001685778375906448 -0.0011248962497956774 0.0
0.0017396327908280724 -0.0011376075912972318 0.0
0.001793892369717678 -0.0011494985882869976 0.0
0.0018484683902100288 -0.0011606294241049157 0.0
0.0019033284843433355 -0.0011708534319372224 0.0
0.00195853216753053 -0.0011803228532223232 0.0
0.002014013757244644 -0.0011888978365803158 0.0
0.002069661283802324 -0.001196691402028197 0.0
0.002125566104601048 -0.0012035270947676545 0.0
0.002181484556314533 -0.0012095634334250756 0.0
0.002237614520915035 -0.0012147526164498245 0.0
0.0022937734628786267 -0.0012189934795153842 0.0
0.002349947227917684 -0.0012224386083079446 0.0
0.0024062589641796633 -0.0012249287020661833 0.0
0.0024620226999837323 -0.001226316495481405 0.0
0.002518288030413408 -0.0012269834940128103 0.0
0.0025728549573634067 -0.0012262736759453493 0.0
0.002628355776750506 -0.0012246292610456307 0.0
0.002681474974005845 -0.0012216028390619896 0.0
0.0027363263147138655 -0.0012174538876544574 0.0
0.0027898280706681006 -0.001211843549662749 0.0
0.0028436958045020212 -0.0012043547968549181 0.0
0.002897911200384508 -0.0011956695637678919 0.0
0.0029526191650822427 -0.001185404514488958 0.0
0.003007353968364074 -0.0011742179508652344 0.0
0.0030622432355722675 -0.0011618711188245137 0.0
0.003117079192085216 -0.0011487142842649674 0.0
0.0031717857520555514 -0.0011344930543917726 0.0
0.0032263712579175146 -0.0011193816289135354 0.0
0.0032807003375417564 -0.0011036702921323218 0.0
0.003334514051819458 -0.00108706931091191 0.0
0.0033879429720901034 -0.0010698036233213705 0.0
0.0034410763959438146 -0.00105171760499871 0.0
0.003493834787437767 -0.0010328062447931092 0.0
0.0035459816526569967 -0.001013255558476057 0.0
0.003597951797723294 -0.0009928757114745857 0.0
0.00364920132468669 -0.0009717458236438876 0.0
0.0036999729612189037 -0.0009499757742962216 0.0
0.003750432704865528 -0.0009273191811900799 0.0
0.003800138389357185 -0.0009040399209782238 0.0
0.0038494739082227873 -0.0008800139628442375 0.0
0.003898233113841952 -0.0008552359961766537 0.0
0.003946560917757828 -0.0008297177647173345 0.0
0.003994361400125188 -0.0008033432980388191 0.0
0.004041699180450435 -0.0007761604184392665 0.0
0.004088307062595994 -0.0007482908822067424 0.0
0.004134527418284834 -0.0007196257371489803 0.0
0.004180308929717922 -0.0006900912613161404 0.0
0.004225482522219081 -0.0006597022729490804 0.0
0.004270235920360403 -0.0006284907501157721 0.0
0.004314678588053445 -0.0005962520348227959 0.0
0.004358514643552754 -0.0005630202609997014 0.0
0.0044018584194217 -0.0005288462627998071 0.0
0.004445060374463066 -0.0004935437256088152 0.0
0.004488074958882436 -0.0004569461708258553 0.0
0.0045306561279377065 -0.000418970616446757 0.0
0.00457290852959514 -0.0003795473672974121 0.0
0.004615214366885505 -0.0003384031528664492 0.0
0.004658083503214525 -0.00029510042531781885 0.0
0.004700934567107261 -0.00024935694251775026 0.0
0.004744294801692311 -0.0002001590793251957 0.0
0.004790320470775559 -0.0001460321378737977 0.0
0.0048376169241923185 -8.419899404829578e-5 0.0
0.004899999994154835 -4.249425263881619e-11 0.0
0.004899999986537428 -4.7047034221448e-11 0.0
0.004899999990166825 -3.495134477691635e-11 0.0
0.00489999999005123 -3.1439649678484746e-11 0.0
0.0048999999906116235 -2.727612813438675e-11 0.0
0.004899999991060732 -2.3922583643674676e-11 0.0
0.004899999991213996 -2.120313602384543e-11 0.0
0.0048999999915230455 -1.8743302074540312e-11 0.0
0.004899999991587006 -1.641312669400959e-11 0.0
0.00489999999170515 -1.413462865103652e-11 0.0
0.004899999992082794 -1.2290356331705554e-11 0.0
0.004899999991905111 -9.85796076567887e-12 0.0
0.0048999999920665924 -8.047022657152486e-12 0.0
0.004899999992107324 -5.950874584151173e-12 0.0
0.004899999992075914 -3.9519147497228955e-12 0.0
0.004899999991968942 -1.880423742428395e-12 0.0
0.004899999991934563 1.1562650840654287e-13 0.0
0.004899999991187103 2.313657907257448e-12 0.0
0.004899999991633493 4.0441268507049266e-12 0.0
0.0048999999904779405 6.1930249011693416e-12 0.0
0.004899999990459219 7.586615687783545e-12 0.0
0.004899999990026605 9.09489969561809e-12 0.0
0.004899999990417552 9.577868228897527e-12 0.0
0.004899999990093416 1.3616924449006458e-11 0.0
0.004899999994628101 6.88338718662246e-12 0.0
0.004543811330127956 0.00028708327548225305 0.0
0.004228041888147631 0.0004185157886774215 0.0
0.003936496584304661 0.00047264970951598937 0.0
0.003689107330489186 0.0004735484510221011 0.0
0.00351839732013357 0.00030361715570974843 0.0
0.00349345963478977 0.0002229448751070009 0.0
0.003444251601034363 0.00018370681733456654 0.0
0.003384498099256442 0.00016571099547868607 0.0
0.003313130519192467 0.00016230027824860316 0.0
0.0032340762856208206 0.00016462217434008646 0.0
0.003148824478681034 0.00016904545216057948 0.0
0.003059014554481404 0.00017605459608726278 0.0
0.002963010095992055 0.00018185278731540152 0.0
0.0028599848651548266 0.00018538847530823012 0.0
0.002745141982916589 0.00018631944555440918 0.0
0.0026064435676033397 0.0001863133350973092 0.0
0.002229736967263857 0.00020457838503619392 0.0
0.0020988723605378937 0.00021616514692350034 0.0
0.001991009013623212 0.00021893229462755076 0.0
0.0018970392290553494 0.0002199743810598788 0.0
0.0018119448293166147 0.00022102697185101279 0.0
0.0017350202284844118 0.00022313319997237994 0.0
0.0016661424016120483 0.00022791934212676028 0.0
0.0016076187771467973 0.00023767913611038045 0.0
0.0015619390631019653 0.0002588795142760905 0.0
0.0015309304786103462 0.0002973964676622024 0.0
0.0015188062884593353 0.0003636935023026007 0.0
0.0015213770437469906 0.0004762241849208184 0.0
0.0013395209843004216 0.0006501796155702039 0.0
0.0010718684802438168 0.0006055044675559643 0.0
0.0007428937375925086 0.0005024322095255253 0.0
0.00039140806826719365 0.00033055609011168577 0.0
0.0012813189455446595 -0.0009522491923444011 0.0
0.003533797965301851 -0.0009698514657672838 0.0
0.001648999773462416 -0.0010725389298852377 0.0
0.0031530907744782614 -0.0010952763789735269 0.0
0.00204106979504259 -0.001149938133727022 0.0
0.002760046426699702 -0.0011627746841092871 0.0
0.002377312980198705 -0.0011781422893187613 0.0
0.0038420257219676126 -0.0008439134365936711 0.0
0.0009972011623367067 -0.0008363670341294424 0.0
0.00407006710620757 -0.0007199027584614264 0.0
0.0007678215346457071 -0.0007127187450974474 0.0
7.931595455780247e-5 -1.587152086754152e-5 0.0
0.004819615344118987 -1.563751686822104e-5 0.0
0.0026392586107170635 0.0002059163235666154 0.0
0.003026077250109199 0.00020208356479495054 0.0
0.0021949708423022285 0.00021494108507744058 0.0
0.0018331066628616915 0.00024041373950150458 0.0
0.0043026222697951175 -0.0005745797014670019 0.0
0.0005613740530932586 -0.00057653125758951 0.0
5.362400161259615e-5 -2.8941509889998645e-5 0.0
0.004844990915170475 -2.7230432624914966e-5 0.0
0.004783929265429725 3.4932942560267887e-6 0.0
0.00010739641271481168 4.198113607907395e-6 0.0
0.004477911812731469 -0.00043806203441061116 0.0
0.00039261205049440507 -0.0004349091406550602 0.0
0.0032905874602940535 0.0001913298578870327 0.0
0.0016055132810867399 0.0002480812660664594 0.0
3.9503429582917535e-5 -3.1787684441058475e-5 0.0
0.0048567197550589405 -3.109257040849523e-5 0.0
0.0018753304808037132 -0.0011215885999061419 0.0
0.002207345765767746 -0.0011682773270638171 0.0
0.002985467160242534 -0.0011312250222833354 0.0
0.0025505678021380865 -0.0011765517719452177 0.0
0.003317886313221953 -0.0010472197697510056 0.0
0.003679634468135243 -0.0009174697627000433 0.0
0.0015020483709432782 -0.001031076255238257 0.0
0.0011394442571049392 -0.0009031930746167758 0.0
0.004600761947563004 -0.00032886983412963074 0.0
0.00027246942316604903 -0.0003218919721904208 0.0
0.00475207386029133 3.0918179794587073e-5 0.0
0.00013345989753541396 2.6397926975198463e-5 0.0
0.004863822563389538 -3.439539916400277e-5 0.0
3.640753723990646e-5 -3.872167577192951e-5 0.0
0.0034445241836590823 0.00019971081771688829 0.0
0.0014868481482083922 0.00028687787655262204 0.0
0.004693449668266896 5.7413598172673206e-5 0.0
0.00018368249448843632 5.157426974344018e-5 0.0
6.570820773779343e-5 -2.401486429939838e-5 0.0
0.00483236923278378 -2.324587725585027e-5 0.0
0.002831821967400289 0.00021065029615224975 0.0
0.002010073408625182 0.00024015457688877413 0.0
0.0001504182226709712 -0.00018588530675149877 0.0
0.004740286073526989 -0.00018618956071530837 0.0
0.0034219992004886277 -0.0010167580369227845 0.0
0.002656283690180416 -0.0011743659923467492 0.0
0.0017688998812013038 -0.0010994673449687758 0.0
0.0013889607935899007 -0.000997836283220727 0.0
0.0028757402894077264 -0.0011481171393364976 0.0
0.003931578137156038 -0.0007991205949868856 0.0
0.0009048773799179513 -0.0007881120135362569 0.0
0.004167405464981398 -0.0006642012937779696 0.0
0.0006757385584884475 -0.0006530014560031355 0.0
0.00047199432073197954 -0.0005042921772864024 0.0
0.004391056603701239 -0.0005079021479989354 0.0
0.0008988869496600231 0.000357175726689708 0.0
0.004075216687193086 0.0003094619734707407 0.0
0.004864908315265465 -3.890986035056855e-5 0.0
3.185958241571669e-5 -3.909284776247295e-5 0.0
0.001418602444869881 0.0003980294066178914 0.0
0.003561027877280559 0.0002712281144305314 0.0
0.00020619446101157395 8.409822784295839e-5 0.0
0.00468879034874337 8.125237414111303e-5 0.0
6.554112685968973e-5 -8.335040039422092e-5 0.0
0.004828318711374887 -8.590735806640861e-5 0.0
0.0038099303009940435 0.0003557923285282481 0.0
0.0039047252494430877 0.0002739119343768242 0.0
0.004203365503869953 0.00021393607522605295 0.0
0.004035209569744424 0.0002207928272829926 0.0
0.0038068139277691693 0.0002466004610297952 0.0
0.003891444249438054 0.00022740403712317767 0.0
0.004109996532180465 0.00019423760680723469 0.0
0.0039737220855756965 0.0002073659373742744 0.0
0.004180061491280008 0.00017066109714236835 0.0
0.004053616590363405 0.00018287770921670443 0.0
0.003860176871438104 0.0002134632155808382 0.0
0.0039330567202975845 0.00018828038115934322 0.0
0.0037661047900730935 0.0002122708861219802 0.0
0.0038247139239894466 0.00018558494877294593 0.0
0.0036721379994715756 0.00020573399636506843 0.0
0.00372484316619698 0.00017442697435500265 0.0
0.002574924411998425 0.0001396220122188911 0.0
0.002412667198589149 0.00011242178924680352 0.0
0.0025406259073430517 0.00010008655031028129 0.0
0.002409211079560996 8.052990949420843e-5 0.0
0.0025205074678041443 6.986431544886503e-5 0.0
0.0024076935758873493 5.495732795445232e-5 0.0
0.002507505429860255 4.433843570854833e-5 0.0
0.0024058362000033313 3.148103817481396e-5 0.0
0.0024980300428765236 2.1343458796177907e-5 0.0
0.0024041726220772512 9.805603241766798e-6 0.0
0.0024908379312900395 2.3114420389081326e-7 0.0
0.0024029131977102007 -1.0407676419270505e-5 0.0
0.0024853093854339567 -2.0135954341984436e-5 0.0
0.0024041648575425846 -2.9975814068896213e-5 0.0
0.0024810016319922064 -3.961944700757694e-5 0.0
0.0024032659681670616 -4.909451776105486e-5 0.0
0.002477106208875138 -5.855729411286522e-5 0.0
0.002399941926828718 -6.778379717645358e-5 0.0
0.00247329751328821 -7.718166317064183e-5 0.0
0.0023984822921461163 -8.613491821379616e-5 0.0
0.0024701491993444212 -9.564433080278171e-5 0.0
0.0023973505283506583 -0.00010441766335609775 0.0
0.0024650204686298524 -0.00011393176140758836 0.0
0.002395820194816508 -0.00012276155030226286 0.0
0.002462044008698874 -0.00013235069207118207 0.0
0.0023956173321007957 -0.0001407760534999151 0.0
0.002459527337634427 -0.0001508711473128984 0.0
0.002390989545196289 -0.00015819557160722366 0.0
0.002456354637583882 -0.00016950401871790568 0.0
0.0023736872130298197 -0.00017705672104573354 0.0
0.0024576699638415166 -0.00018875634763954244 0.0
0.002388122387964416 -0.00019757214020102088 0.0
0.0024548821745512947 -0.00020809663830575215 0.0
0.002389248969054856 -0.00021746144381161133 0.0
0.0024532244818717954 -0.00022802821754644355 0.0
0.0023922170167440236 -0.00023758316295684597 0.0
0.0024513248597814725 -0.00024831515497126643 0.0
0.0023920516384047484 -0.00025845444495592814 0.0
0.0023174549679737633 2.1974534947977337e-5 0.0
0.002449415813525888 -0.0002692087914896139 0.0
0.0023247568413954133 -7.55748573776749e-5 0.0
0.002312011572875295 -0.00019203578709880975 0.0
0.002387056415919946 -0.0002795914467666712 0.0
0.0024470725367324326 -0.00029069460335336096 0.0
0.0023821982025872147 -0.0003021135070309094 0.0
0.0023230609443003576 -0.00028892015071049846 0.0
0.0023167273025244376 -0.000312587729837034 0.0
0.0024423546402765786 -0.0003141190332479234 0.0
0.002507954334492129 -0.0003018620825497915 0.0
0.002517975107012513 -0.0001979776062390627 0.0
0.002503569296779033 -0.0003259879480787564 0.0
0.002573031093783377 -0.00031140267427712443 0.0
0.0025663533447586404 -0.0003377732171388191 0.0
0.002258160463512774 -0.00029874957414087727 0.0
0.00225422388033915 -0.00032203110978369306 0.0
0.0026378149427197495 -0.0003218750758666 0.0
0.0021919051970134954 -0.0003074129231458379 0.0
0.0021918304745871748 -0.000331919857160678 0.0
0.002632270926566571 -0.0003485899815204304 0.0
0.0027013503452246244 -0.00033390918588753347 0.0
0.0021252227009445454 -0.0003162871676951578 0.0
0.00212361977617464 -0.00034161622744625843 0.0
0.0026972631154133972 -0.00036050578924716166 0.0
0.0027681017618635807 -0.00034493050726451974 0.0
0.002058830394488241 -0.00032521864611633963 0.0
0.0020566577226735954 -0.00035216284494493183 0.0
0.0027638340485833567 -0.000372959885938851 0.0
0.0028363615386331055 -0.00035582668555066946 0.0
0.0019929026330332304 -0.00033282090318226704 0.0
0.0019863181398485554 -0.00036070667401066344 0.0
0.0028329866823795496 -0.00038463682596419265 0.0
0.002905700905159567 -0.0003665238333428147 0.0
0.001920411723644231 -0.0003405201783520568 0.0
0.0019155481256498538 -0.00037013964951438294 0.0
0.0018459268519637675 -0.00035012851773447796 0.0
0.0018503028419924253 -0.0003187610369113432 0.0
0.0027536771771862014 -0.0004006817597940339 0.0
0.002902005054156745 -0.00039652846105624244 0.0
0.0029759643511002663 -0.00037709098822890074 0.0
0.002980885738700206 -0.00034635912739281876 0.0
0.0025330761604937134 -0.00010565311284400153 0.0
0.0030537519957890185 -0.00035639737092550315 0.0
0.0030593130770608093 -0.0003245759275373245 0.0
0.003134254792147519 -0.00033363989347961727 0.0
0.0018468336919269142 -0.0003822639398811418 0.0
0.0017741038195863692 -0.0003588456219246711 0.0
0.0019150820352198089 -0.0004020759086670744 0.0
0.002970177564477218 -0.0004087356051650999 0.0
0.0017758014089870994 -0.0003919686050393567 0.0
0.001702273283855859 -0.0003667416422372567 0.0
0.002563127631497748 -2.8352151257563524e-5 0.0
0.0017035815852482594 -0.0003993267264723012 0.0
0.0016302523535314248 -0.00037368879025749036 0.0
0.0016316722143926601 -0.0004072207101296511 0.0
0.0015593578484833666 -0.0003791379964097481 0.0
0.0015563234672991567 -0.0003464629440842926 0.0
0.0014813434143438762 -0.00035288222322818404 0.0
0.001479326926831553 -0.00031836822842167597 0.0
0.001552093914423354 -0.0004125410278276445 0.0
0.0013989710575541415 -0.0003252629797699001 0.0
0.001396302379835778 -0.00028993226447032033 0.0
0.0016335204595276742 -0.00044283794079403243 0.0
0.001565760677042194 -0.00045090423958284387 0.0
0.001317929677877356 -0.0002940672539567251 0.0
0.001312615622711 -0.00025974855086087587 0.0
0.003141974448526546 -0.0003014961864711072 0.0
0.0032196548324140138 -0.0003101851910797201 0.0
0.0016350263782743714 -0.00047903833001114427 0.0
0.001567965538291392 -0.0004869822395214715 0.0
0.0032282775298497803 -0.00027712343239257275 0.0
0.0033094313946915176 -0.0002861601266212069 0.0
0.003297598266063742 -0.0003224416773205604 0.0
0.003387673404232028 -0.00029648908994686423 0.0
0.0033774821138123404 -0.00033375038356512336 0.0
0.0034674046963214427 -0.00030496899346300584 0.0
0.0034619347374659085 -0.00034211310414261994 0.0
0.00355456035644224 -0.0003095929527413256 0.0
0.0035414830264746573 -0.0003475751138382421 0.0
0.0035600378777810365 -0.00027403331355854493 0.0
0.003635415222147548 -0.000315741804632813 0.0
0.0036176824341373087 -0.0003536484139225076 0.0
0.0016371279081474899 -0.0005160164712572068 0.0
0.0012302236429617113 -0.00026308571504755603 0.0
0.0012233695590125543 -0.000228369576558844 0.0
0.003531618159087111 -0.00038673000324687673 0.0
0.0036052141456127894 -0.000392376466680202 0.0
0.0036898161104751987 -0.0003588295461792045 0.0
0.003525354817789867 -0.00042703968208853625 0.0
0.0015715065768008645 -0.0005242632886425595 0.0
0.0036778995391323786 -0.0003972108411863002 0.0
0.0037604264161084982 -0.00036274485882406305 0.0
0.001638893366797912 -0.0005541358431318634 0.0
0.001574385781120726 -0.0005627003803472453 0.0
0.0015080949626921007 -0.0005315826605657803 0.0