# vtk DataFile Version 2.0
phase field modeling fracture
ASCII
DATASET UNSTRUCTURED_GRID
POINTS 2538 float
0.0 0.0 0.0
10.0 0.0 0.0
0.0 10.0 0.0
10.0 10.0 0.0
0.0 4.9995 0.0
0.0 5.0005 0.0
5.0 5.0 0.0
0.9416964895726688 0.0 0.0
1.803581725054446 0.0 0.0
2.592419885431098 0.0 0.0
3.314401822861676 0.0 0.0
3.975193910351406 0.0 0.0
4.579982132660152 0.0 0.0
5.133512780936812 0.0 0.0
5.640130319506143 0.0 0.0
6.103810708661955 0.0 0.0
6.528192895506818 0.0 0.0
6.916607540127679 0.0 0.0
7.272102969376355 0.0 0.0
7.597469242948583 0.0 0.0
7.895259826292669 0.0 0.0
8.167811885738017 0.0 0.0
8.417264413845215 0.0 0.0
8.645575169389538 0.0 0.0
8.854535961159101 0.0 0.0
9.045786767735546 0.0 0.0
9.220828555767493 0.0 0.0
9.38103509633881 0.0 0.0
9.527663687265145 0.0 0.0
9.661865124984566 0.0 0.0
9.784692609918062 0.0 0.0
9.897110148790482 0.0 0.0
10.0 0.09999999999992584 0.0
10.0 0.199999999999856 0.0
10.0 0.2999999999997771 0.0
10.0 0.3999999999996677 0.0
10.0 0.4999999999995511 0.0
10.0 0.5999999999994683 0.0
10.0 0.6999999999993983 0.0
10.0 0.7999999999993286 0.0
10.0 0.8999999999992587 0.0
10.0 0.9999999999991888 0.0
10.0 1.099999999999119 0.0
10.0 1.199999999999033 0.0
10.0 1.299999999998852 0.0
10.0 1.399999999998576 0.0
10.0 1.499999999998284 0.0
10.0 1.599999999997992 0.0
10.0 1.6999999999977 0.0
10.0 1.799999999997408 0.0
10.0 1.899999999997116 0.0
10.0 1.999999999996825 0.0
10.0 2.099999999996533 0.0
10.0 2.199999999996241 0.0
10.0 2.299999999995949 0.0
10.0 2.399999999995657 0.0
10.0 2.499999999995365 0.0
10.0 2.599999999995073 0.0
10.0 2.699999999994782 0.0
10.0 2.79999999999449 0.0
10.0 2.899999999994198 0.0
10.0 2.999999999993906 0.0
10.0 3.099999999993614 0.0
10.0 3.199999999993322 0.0
10.0 3.299999999993029 0.0
10.0 3.399999999992738 0.0
10.0 3.499999999992446 0.0
10.0 3.599999999992154 0.0
10.0 3.699999999991863 0.0
10.0 3.799999999991571 0.0
10.0 3.899999999991278 0.0
10.0 3.999999999991022 0.0
10.0 4.099999999991035 0.0
10.0 4.199999999991187 0.0
10.0 4.299999999991338 0.0
10.0 4.399999999991491 0.0
10.0 4.499999999991642 0.0
10.0 4.599999999991795 0.0
10.0 4.699999999991947 0.0
10.0 4.799999999992099 0.0
10.0 4.89999999999225 0.0
10.0 4.999999999992403 0.0
10.0 5.099999999992555 0.0
10.0 5.199999999992706 0.0
10.0 5.299999999992858 0.0
10.0 5.39999999999301 0.0
10.0 5.499999999993161 0.0
10.0 5.599999999993313 0.0
10.0 5.699999999993466 0.0
10.0 5.799999999993618 0.0
10.0 5.899999999993771 0.0
10.0 5.999999999993922 0.0
10.0 6.099999999994074 0.0
10.0 6.199999999994227 0.0
10.0 6.299999999994378 0.0
10.0 6.39999999999453 0.0
10.0 6.499999999994682 0.0
10.0 6.599999999994833 0.0
10.0 6.699999999994986 0.0
10.0 6.799999999995138 0.0
10.0 6.899999999995289 0.0
10.0 6.999999999995442 0.0
10.0 7.099999999995594 0.0
10.0 7.199999999995747 0.0
10.0 7.299999999995897 0.0
10.0 7.39999999999605 0.0
10.0 7.499999999996202 0.0
10.0 7.599999999996353 0.0
10.0 7.699999999996505 0.0
10.0 7.799999999996658 0.0
10.0 7.899999999996808 0.0
10.0 7.999999999996962 0.0
10.0 8.099999999997113 0.0
10.0 8.199999999997265 0.0
10.0 8.299999999997418 0.0
10.0 8.399999999997569 0.0
10.0 8.499999999997721 0.0
10.0 8.599999999997873 0.0
10.0 8.699999999998024 0.0
10.0 8.799999999998176 0.0
10.0 8.899999999998329 0.0
10.0 8.99999999999848 0.0
10.0 9.099999999998634 0.0
10.0 9.199999999998786 0.0
10.0 9.299999999998937 0.0
10.0 9.399999999999089 0.0
10.0 9.499999999999241 0.0
10.0 9.599999999999392 0.0
10.0 9.699999999999545 0.0
10.0 9.799999999999697 0.0
10.0 9.899999999999848 0.0
9.897110148790565 10.0 0.0
9.784692609918244 10.0 0.0
9.66186512498486 10.0 0.0
9.527663687265571 10.0 0.0
9.381035096339392 10.0 0.0
9.220828555768257 10.0 0.0
9.045786767736512 10.0 0.0
8.854535961160305 10.0 0.0
8.645575169391027 10.0 0.0
8.417264413847017 10.0 0.0
8.167811885740178 10.0 0.0
7.895259826295246 10.0 0.0
7.597469242951631 10.0 0.0
7.272102969379938 10.0 0.0
6.916607540131873 10.0 0.0
6.528192895511704 10.0 0.0
6.103810708667616 10.0 0.0
5.640130319512691 10.0 0.0
5.13351278094435 10.0 0.0
4.579982132668816 10.0 0.0
3.975193910361222 10.0 0.0
3.314401822869852 10.0 0.0
2.592419885437257 10.0 0.0
1.803581725058137 10.0 0.0
0.9416964895740705 10.0 0.0
0.0 9.00010000000243 0.0
0.0 8.000200000005481 0.0
0.0 7.000300000005135 0.0
0.0 6.000400000002569 0.0
0.901790731451151 5.000409820926855 0.0
1.657200899774397 5.000334279910023 0.0
2.289991063707192 5.000271000893629 0.0
2.820065163538221 5.000217993483646 0.0
3.264096435579811 5.000173590356442 0.0
3.636051481595835 5.00013639485184 0.0
3.947629914072366 5.000105237008593 0.0
4.208632181002628 5.0000791367819 0.0
4.427267949625672 5.000057273205037 0.0
4.610414277633563 5.000038958572237 0.0
4.763831845154243 5.000023616815485 0.0
4.892346298799659 5.00001076537012 0.0
4.892346298799748 4.99998923462988 0.0
4.763831845154455 4.999976383184515 0.0
4.610414277633943 4.999961041427763 0.0
4.427267949626277 4.999942726794963 0.0
4.208632181003523 4.9999208632181 0.0
3.94762991407365 4.999894762991407 0.0
3.636051481597624 4.99986360514816 0.0
3.264096435582253 4.999826409643559 0.0
2.820065163541503 4.999782006516354 0.0
2.289991063711534 4.999728999106371 0.0
1.657200899778495 4.999665720089978 0.0
0.9017907314530094 4.999590179073145 0.0
0.0 3.999600000002013 0.0
0.0 2.999700000005187 0.0
0.0 1.99980000000512 0.0
0.0 0.9999000000025537 0.0
9.897889398521345 2.93573355845387 0.0
9.906568249974548 7.060009441434234 0.0
9.913122631074113 3.64016132281653 0.0
9.922462129543863 6.354535290629151 0.0
9.917693659967533 4.354211663134567 0.0
9.909873057440208 5.637584487339942 0.0
9.914183254994697 4.950672966925282 0.0
9.913885043715895 7.666887930262611 0.0
9.91009668007573 2.351889069770817 0.0
9.905135696074536 8.138152454502785 0.0
9.913397459621809 1.849999999997262 0.0
7.099302372137626 0.297750452375005 0.0
7.095143729410097 9.700359990366296 0.0
4.942912558701401 5.095838627899509 0.0
4.315009232304429 5.165022115481685 0.0
4.946182472483878 4.906763777264103 0.0
4.317967462990024 4.825955043772673 0.0
9.916390871492647 8.64999999999792 0.0
9.921504649680616 1.368376469890358 0.0
8.292538149791614 0.206877570318844 0.0
8.292538149793597 9.793122429681448 0.0
5.884594439766573 9.587645267048616 0.0
5.794826292691579 0.3794853783929359 0.0
9.913397459621425 9.049999999998557 0.0
9.908526577714177 0.9568239351922434 0.0
3.456851160380649 5.315740054130451 0.0
3.457889657868442 4.707121019609468 0.0
8.945214200703926 0.1503383337970344 0.0
8.950161364448409 9.8413906539257 0.0
9.913862335499305 4.055887885208452 0.0
9.916697353372683 4.650158482607802 0.0
9.919076340414442 6.049999999994006 0.0
9.906994308667635 5.25749687748192 0.0
9.917490342358025 6.655979201891897 0.0
9.915757520293784 7.343848891656911 0.0
9.910049507471042 3.363474386285078 0.0
9.914471988502868 2.647400064832979 0.0
9.91474124160965 9.337490423485129 0.0
9.916971008170838 0.6499999999994355 0.0
4.307157269264427 9.509674045029644 0.0
4.331527375865619 0.4401616696422582 0.0
9.45434939180249 9.878397030523757 0.0
9.457696120412969 0.1270877537061785 0.0
2.555070293622606 5.422044496190925 0.0
2.566232917480916 4.608001224030952 0.0
3.026511860837692 9.332320638257093 0.0
2.945561971800619 0.5895662714727601 0.0
7.7395404387124 0.2511088946967771 0.0
7.736379255744154 9.745848826372828 0.0
4.687135269408529 5.122111433928926 0.0
4.688420821504113 4.871895064967488 0.0
9.910554884115975 0.3448356354522978 0.0
9.911230082250466 9.65764729394159 0.0
9.921953841410854 6.851023993342036 0.0
9.912065178606017 5.448170483544033 0.0
9.911660025326261 3.861846960030188 0.0
9.914847467973438 3.14501593945607 0.0
9.913397459621425 5.849999999993703 0.0
9.913397459621425 7.849999999996735 0.0
9.906916878988277 2.15455769998631 0.0
9.913397459621425 8.349999999997479 0.0
9.909472363117661 1.640528221515488 0.0
9.913987325695956 1.152857110636247 0.0
9.913397459621425 8.849999999998241 0.0
0.9100099990995943 2.614215977520411 0.0
0.8395284981715456 7.451196254860987 0.0
9.723278867451556 9.898135916635193 0.0
9.723316350887044 0.09841820909386662 0.0
1.385819164827588 4.454539963646463 0.0
1.338343629665047 5.523111536005823 0.0
1.377179700550677 0.6809168304959698 0.0
1.418060461092743 9.285896715136046 0.0
9.91268220142518 0.1457914080939694 0.0
9.906737126737994 9.845745933882352 0.0
0.7108351382691361 6.537941170074089 0.0
1.527735020267026 6.915620208855231 0.0
1.630993885659103 7.838271825205868 0.0
2.232760943566823 7.370850737296832 0.0
2.243414218068206 6.688299277952821 0.0
2.779655053105118 7.021588754814074 0.0
2.80227799359795 7.632420170547022 0.0
3.282022065908813 7.305859666021318 0.0
3.327597298795347 7.857554136825748 0.0
3.743210251018715 7.549183328204379 0.0
3.716353232200752 7.062036086888612 0.0
4.111978858674101 7.27497101169417 0.0
4.104192177581432 6.879858986267289 0.0
4.436230765617037 7.045693351607117 0.0
4.430360014817357 6.703971783962796 0.0
4.732390145036301 6.849841042423394 0.0
5.056161327708878 5.095276573498806 0.0
5.111586796021131 4.999081142133581 0.0
5.169267363407189 5.09444870412406 0.0
5.223795108752053 4.996986220359468 0.0
5.281480803887719 5.092780870372803 0.0
5.335670761900611 4.994887492556936 0.0
5.393485214772442 5.090486192743301 0.0
5.447323082877892 4.992601527033996 0.0
5.505243219343024 5.087953380710069 0.0
5.558739102026105 4.990287787962959 0.0
5.616491581184779 5.085335255235766 0.0
5.669852346908056 4.9879269227514 0.0
5.727502713908907 5.082679981817038 0.0
5.780766004135139 4.988313988715834 0.0
5.838244881129535 5.080480568766611 0.0
5.891357695677371 4.986433849408193 0.0
5.948696036767613 5.077969900389505 0.0
6.001601341641615 4.981313698556656 0.0
6.058851024265095 5.074871552128682 0.0
6.111614020704875 4.978360695880202 0.0
6.168801161530775 5.072044953270978 0.0
6.221368818778567 4.975825765213497 0.0
6.278268309066882 5.066182320461055 0.0
6.330814273567539 4.972837984645718 0.0
6.387565032421376 5.062889771971895 0.0
6.437476667631405 4.971693683589553 0.0
[...]
POINT_DATA 2538
VECTORS disp float
3.96517048192463e-13 1.1708384171649598e-12 0.0
8.976341318025873e-13 -2.453685906889064e-12 0.0
9.99999996014873e-5 1.1730013673487259e-12 0.0
9.999999910995837e-5 -2.446970971919684e-12 0.0
2.886122521473459e-5 1.1893933114929496e-5 0.0
7.116861371039632e-5 1.1872202869111381e-5 0.0
4.998584292080264e-5 3.7563224721436552e-6 0.0
1.2515308002104674e-13 1.9633367273290055e-13 0.0
2.301965520666792e-13 2.946675942877393e-13 0.0
2.278269920545613e-13 1.9111135989345116e-13 0.0
2.341592654233725e-13 1.8330624475890168e-13 0.0
2.3019208562826884e-13 1.4995943825027226e-13 0.0
2.2377842017874683e-13 1.2124058965579068e-13 0.0
2.1763242295796094e-13 8.433981784429124e-14 0.0
2.1251347184522708e-13 4.182439061172972e-14 0.0
1.9463280414789764e-13 -6.490852288651931e-15 0.0
2.0242126476254608e-13 -5.1861743494157334e-14 0.0
1.9216869144236426e-13 -1.0085069204476134e-13 0.0
1.8686250755479533e-13 -1.5290236361571689e-13 0.0
1.8501027949920311e-13 -2.0345071182683156e-13 0.0
1.7720680593890326e-13 -2.5306138888879427e-13 0.0
1.7877146060685842e-13 -3.1019212104945994e-13 0.0
1.7295811479583012e-13 -3.6142173754120755e-13 0.0
1.761510974418018e-13 -4.167088460403928e-13 0.0
1.7305027223095233e-13 -4.808407407356463e-13 0.0
1.7470190854816358e-13 -5.385197496827084e-13 0.0
1.7666405393248796e-13 -6.043813459646596e-13 0.0
1.812402388298649e-13 -6.764091861572102e-13 0.0
1.9437612538944587e-13 -7.586385954991235e-13 0.0
1.9122232625045023e-13 -8.452896127230493e-13 0.0
2.5741918312824703e-13 -1.032204211214204e-12 0.0
1.0043931896611538e-13 -9.530661118879502e-13 0.0
1.2039775886749955e-6 -1.7053064098251031e-6 0.0
2.061645414261122e-6 -2.9693088885336504e-6 0.0
2.8911920663201176e-6 -4.083337542171828e-6 0.0
3.6870062738747815e-6 -5.104901506588767e-6 0.0
4.460995505134678e-6 -6.06061878229138e-6 0.0
5.2304088862581995e-6 -6.9707420745717015e-6 0.0
6.007947110085132e-6 -7.839158247725288e-6 0.0
6.786237848811988e-6 -8.671454798396272e-6 0.0
7.572131295388324e-6 -9.473736830185125e-6 0.0
8.367046103204863e-6 -1.0246259591231296e-5 0.0
9.171785113333338e-6 -1.099457808986462e-5 0.0
9.991608591406808e-6 -1.1719458036660364e-5 0.0
1.0820139430978825e-5 -1.242046190014316e-5 0.0
1.166206003924572e-5 -1.3102229109930415e-5 0.0
1.2521732785716757e-5 -1.376467997297617e-5 0.0
1.3389736418929277e-5 -1.4406029047811534e-5 0.0
1.4272050912923115e-5 -1.5029514872144732e-5 0.0
1.5167914261405968e-5 -1.5632796368111787e-5 0.0
1.6077003761706487e-5 -1.6218727572250328e-5 0.0
1.6999772225962698e-5 -1.6787479926760775e-5 0.0
1.7937214563118708e-5 -1.733910027429401e-5 0.0
1.8886856402694805e-5 -1.7872675145708126e-5 0.0
1.9853973808007035e-5 -1.8391637201701557e-5 0.0
2.0830305870607602e-5 -1.8891549649576497e-5 0.0
2.1825058793271204e-5 -1.9376075814880492e-5 0.0
2.2828046815133976e-5 -1.9841979385974286e-5 0.0
2.3845433571568042e-5 -2.0292322342613473e-5 0.0
2.4874437489002337e-5 -2.0723272339972278e-5 0.0
2.5919451694285596e-5 -2.1139753977708774e-5 0.0
2.6972403128322945e-5 -2.1537517106946415e-5 0.0
2.804090458262897e-5 -2.1919296421412818e-5 0.0
2.9119558073661688e-5 -2.2282183729391528e-5 0.0
3.0210480297795785e-5 -2.2627725365498303e-5 0.0
3.131109020613798e-5 -2.2954479008778142e-5 0.0
3.242587959962332e-5 -2.3264957285247694e-5 0.0
3.354718326466623e-5 -2.3555646836097553e-5 0.0
3.4679553385730006e-5 -2.3827997431060272e-5 0.0
3.582087077906204e-5 -2.408041845885465e-5 0.0
3.697148701722123e-5 -2.431370098417251e-5 0.0
3.8129770401650725e-5 -2.4528254243988455e-5 0.0
3.929487893022723e-5 -2.4722322060215188e-5 0.0
4.046727834230791e-5 -2.4897450779605825e-5 0.0
4.164634552703571e-5 -2.5052196847196993e-5 0.0
4.282980389813289e-5 -2.5187210027427888e-5 0.0
4.401842774457773e-5 -2.5300657475169097e-5 0.0
4.5209569394921106e-5 -2.5394182455964573e-5 0.0
4.64046926470354e-5 -2.5467369801260813e-5 0.0
4.7602386409960306e-5 -2.55191497308609e-5 0.0
4.880160972796531e-5 -2.555058780342565e-5 0.0
5.000274919791412e-5 -2.5560365985189246e-5 0.0
5.120133706902373e-5 -2.5549337696424794e-5 0.0
5.240346933137431e-5 -2.5518319484444283e-5 0.0
5.3598931590436124e-5 -2.5466126429103223e-5 0.0
5.479699153830004e-5 -2.539313798529925e-5 0.0
5.598655219446004e-5 -2.5299849624048494e-5 0.0
5.717784653630831e-5 -2.5185643405429372e-5 0.0
5.8360774198171565e-5 -2.505176388189964e-5 0.0
5.953877916403796e-5 -2.489706271029724e-5 0.0
6.071083384693397e-5 -2.4722971546942755e-5 0.0
6.187709639721877e-5 -2.4527706091678935e-5 0.0
6.303421412884595e-5 -2.4313343841849608e-5 0.0
6.418384973072069e-5 -2.407941076765027e-5 0.0
6.532500750667164e-5 -2.3827142474909038e-5 0.0
6.645705459340651e-5 -2.3554627397083435e-5 0.0
6.758096881889643e-5 -2.3261775245716594e-5 0.0
6.86946649122371e-5 -2.295436781662231e-5 0.0
6.979517558775211e-5 -2.2626872536039653e-5 0.0
7.088403441019467e-5 -2.228203694503875e-5 0.0
7.196337468676809e-5 -2.191848634630892e-5 0.0
7.303201299608126e-5 -2.153669551319805e-5 0.0
7.408592289787823e-5 -2.113931530224915e-5 0.0
7.513199206903564e-5 -2.072325556063068e-5 0.0
7.616158919260426e-5 -2.0290480738103026e-5 0.0
7.71782296885306e-5 -1.984141049160355e-5 0.0
7.818458090268619e-5 -1.9373492791583126e-5 0.0
7.917363969689498e-5 -1.8890578543059556e-5 0.0
8.015163766726007e-5 -1.839031767356552e-5 0.0
8.111503906484791e-5 -1.787343555504472e-5 0.0
8.20660102944571e-5 -1.733983683025965e-5 0.0
8.300327643101404e-5 -1.6786955512934575e-5 0.0
8.392840936986604e-5 -1.621618030366203e-5 0.0
8.483579112250791e-5 -1.5630618155587052e-5 0.0
8.573143818850676e-5 -1.5026675327033195e-5 0.0
8.661478590874271e-5 -1.4404148506636775e-5 0.0
8.748301263061096e-5 -1.3762782222872748e-5 0.0
8.83383984227338e-5 -1.3102802350995467e-5 0.0
8.918307152621678e-5 -1.2421076577759592e-5 0.0
9.001196409422638e-5 -1.17181218529354e-5 0.0
9.082705175075154e-5 -1.0994490277562343e-5 0.0
9.163463441847164e-5 -1.0247160225205737e-5 0.0
9.243387714626486e-5 -9.473126951586271e-6 0.0
9.322018415218435e-5 -8.670671352720519e-6 0.0
9.399504412522525e-5 -7.8379757174438e-6 0.0
9.476663905331338e-5 -6.9713174448011354e-6 0.0
9.554506800896976e-5 -6.062735032436385e-6 0.0
9.631990836966413e-5 -5.1060604753301014e-6 0.0
9.7102177860564e-5 -4.082362654091522e-6 0.0
9.793758549160402e-5 -2.9666736152005257e-6 0.0
9.88049613178769e-5 -1.7012741600645e-6 0.0
9.999999989723569e-5 -9.467913628456404e-13 0.0
9.999999973872502e-5 -1.050916444767416e-12 0.0
9.999999981170214e-5 -8.304677874505641e-13 0.0
9.999999980657338e-5 -7.628069891736703e-13 0.0
9.999999981640675e-5 -6.782405867433923e-13 0.0
9.999999982420875e-5 -6.035840990043823e-13 0.0
9.999999982442542e-5 -5.382504535081176e-13 0.0
9.999999982872844e-5 -4.782574821519408e-13 0.0
9.99999998258867e-5 -4.1869011525948035e-13 0.0
9.999999982299825e-5 -3.6021413847936594e-13 0.0
9.99999998295317e-5 -3.1309028324748577e-13 0.0
9.999999981617031e-5 -2.5009792210763407e-13 0.0
9.999999981659347e-5 -2.0431029242537638e-13 0.0
9.999999981223234e-5 -1.5179854487860612e-13 0.0
9.999999980765553e-5 -1.0215548034359775e-13 0.0
9.99999998024559e-5 -5.23677321491319e-14 0.0
9.999999980010996e-5 -5.7971296349343365e-15 0.0
9.999999978362423e-5 4.4150720499800405e-14 0.0
9.999999979414315e-5 8.071357113825303e-14 0.0
9.999999977015356e-5 1.2440411277114097e-13 0.0
9.999999977120139e-5 1.5122982843287548e-13 0.0
9.999999976273285e-5 1.7914665805501466e-13 0.0
9.999999977486937e-5 1.9313829297208767e-13 0.0
9.99999997666067e-5 2.9084725706028293e-13 0.0
9.999999987733673e-5 1.9801705223575314e-13 0.0
9.271444583476599e-5 6.889217979748624e-6 0.0
8.611128062647349e-5 1.0196280078723357e-5 0.0
8.00276163552997e-5 1.1679074535792368e-5 0.0
7.504946606301904e-5 1.1963517831485608e-5 0.0
7.125516852187947e-5 8.55137372147976e-6 0.0
7.123321008676125e-5 6.4603246439158005e-6 0.0
7.080088721795934e-5 5.262214826387698e-6 0.0
6.99822393209398e-5 4.660763009930982e-6 0.0
6.880368823830642e-5 4.423626076345947e-6 0.0
6.735494260343882e-5 4.374854589162092e-6 0.0
6.569808642616139e-5 4.406536734527855e-6 0.0
6.38886388862133e-5 4.518809416653925e-6 0.0
6.190573322555687e-5 4.627372933538605e-6 0.0
5.973192326131783e-5 4.704792978017584e-6 0.0
5.724844879880701e-5 4.705261055611357e-6 0.0
5.418364590464776e-5 4.557829469936056e-6 0.0
4.573972514383434e-5 4.559812675235216e-6 0.0
4.2759373930858745e-5 4.709809214722748e-6 0.0
4.029178339587891e-5 4.673049237059714e-6 0.0
3.812403684513151e-5 4.597663941342276e-6 0.0
3.6137959584436985e-5 4.513660376335893e-6 0.0
3.431482938477097e-5 4.437235466990799e-6 0.0
3.265053802056567e-5 4.3954300328964e-6 0.0
3.1197766781071166e-5 4.429739709373483e-6 0.0
3.0020799613784234e-5 4.668699620139153e-6 0.0
2.9190739705209076e-5 5.23893988438259e-6 0.0
2.880094085439946e-5 6.416226885948026e-6 0.0
2.8766484260773133e-5 8.58785366608977e-6 0.0
2.497049789052512e-5 1.1988717198644602e-5 0.0
2.000557690948923e-5 1.1695804031130804e-5 0.0
1.389670349351016e-5 1.0206127012587829e-5 0.0
7.269164513808138e-6 6.8984447631645266e-6 0.0
2.617261442297047e-5 -2.02286949307424e-5 0.0
7.377692657783561e-5 -2.0332055389366743e-5 0.0
3.392925425121865e-5 -2.2700837988530488e-5 0.0
6.600698853240293e-5 -2.2816759673504254e-5 0.0
4.2253838956361715e-5 -2.4169142026929102e-5 0.0
5.7657783734358865e-5 -2.4089680675074864e-5 0.0
4.940720178406402e-5 -2.4546231634789757e-5 0.0
7.995809465414544e-5 -1.773256501863008e-5 0.0
2.0224992546241687e-5 -1.7789642797474816e-5 0.0
8.44412719141386e-5 -1.5150372182232576e-5 0.0
1.547049990720714e-5 -1.5156226089946573e-5 0.0
1.5747001491911043e-6 -3.353686387556026e-7 0.0
9.841169365182399e-5 -3.358587830266568e-7 0.0
5.5048676750355976e-5 4.87646850128285e-6 0.0
6.324441624705774e-5 4.996967356974797e-6 0.0
4.505287779058289e-5 4.857366191029652e-6 0.0
3.676608625191414e-5 5.009646685352479e-6 0.0
8.893190008531976e-5 -1.2076105745682253e-5 0.0
1.1235610360790113e-5 -1.2240703163012601e-5 0.0
1.0295506058812877e-6 -6.260390086929364e-7 0.0
9.897178257553116e-5 -6.259006563243204e-7 0.0
9.765580303019559e-5 8.223147051457482e-8 0.0
2.161727293849703e-6 1.0034084567802037e-7 0.0
9.223443246903815e-5 -9.196073316668344e-6 0.0
7.81384640173767e-6 -9.21366658495617e-6 0.0
6.857153947770127e-5 4.748996503754662e-6 0.0
3.150359424522237e-5 4.737325440322328e-6 0.0
7.443247221410467e-7 -6.927609838000259e-7 0.0
9.921526195712012e-5 -7.341512388666711e-7 0.0
3.873158389290943e-5 -2.3652081883858577e-5 0.0
4.579040726166678e-5 -2.4454371908181135e-5 0.0
6.250785535423825e-5 -2.350093723676232e-5 0.0
5.310601392729815e-5 -2.439809509154135e-5 0.0
6.939240855952352e-5 -2.1879967288879814e-5 0.0
7.672030036518036e-5 -1.9252895135985288e-5 0.0
3.082113806354712e-5 -2.186238816508882e-5 0.0
2.3193820741657447e-5 -1.920339911501182e-5 0.0
9.450331070057128e-5 -6.890215418951043e-6 0.0
5.405224575535109e-6 -6.7966917507728435e-6 0.0
9.699993103927107e-5 6.238198429006553e-7 0.0
2.689718636761514e-6 5.558787470288341e-7 0.0
9.934182253355996e-5 -8.016931696392328e-7 0.0
6.89162456117277e-7 -8.364954977451017e-7 0.0
7.133354579559302e-5 5.11022141278262e-6 0.0
2.8774406408427127e-5 5.105724425593317e-6 0.0
9.582881478656444e-5 1.133052794675837e-6 0.0
3.6621775233460423e-6 1.0192776945298821e-6 0.0
1.283538261989642e-6 -5.132611454010287e-7 0.0
9.86981796462458e-5 -5.184789221556707e-7 0.0
5.9180176713732046e-5 5.2078113870529915e-6 0.0
4.08304900878006e-5 5.206785327873068e-6 0.0
2.980271849432275e-6 -3.91058233267722e-6 0.0
9.704303361471004e-5 -3.899358975428895e-6 0.0
7.152060634007036e-5 -2.1269341584633347e-5 0.0
5.5394791898302526e-5 -2.432125777875347e-5 0.0
3.647205057635135e-5 -2.3228000012469293e-5 0.0
2.8433886964114494e-5 -2.1182318805617906e-5 0.0
6.0169784485247934e-5 -2.3814547113731757e-5 0.0
8.172917908788083e-5 -1.679960027231059e-5 0.0
1.8306350794349217e-5 -1.6764451495806488e-5 0.0
8.633474385175035e-5 -1.3969306616464265e-5 0.0
1.3576109382193316e-5 -1.3880595889371439e-5 0.0
9.41866121791038e-6 -1.0696249001224368e-5 0.0
9.06070931347144e-5 -1.067181005264324e-5 0.0
1.7499745662306724e-5 7.212043738000494e-6 0.0
8.29043857390307e-5 7.367668135187754e-6 0.0
9.935142143439875e-5 -8.679646546298229e-7 0.0
6.136890845649735e-7 -8.337071538640096e-7 0.0
2.7016874604651885e-5 7.143119609779645e-6 0.0
7.292130483775121e-5 7.272573809061819e-6 0.0
3.993467886014007e-6 1.7976336256439376e-6 0.0
9.578336499666968e-5 1.8492804851658671e-6 0.0
1.3002325831396495e-6 -1.7479306563648305e-6 0.0
9.865261217184028e-5 -1.8086376089989532e-6 0.0
7.759852589767581e-5 8.843636302346172e-6 0.0
7.95935522102841e-5 6.2130696154244595e-6 0.0
8.564345752894983e-5 4.731284531415919e-6 0.0
8.232477256856748e-5 4.646718404584771e-6 0.0
7.782193985144767e-5 5.307872667959982e-6 0.0
7.957029241267774e-5 4.6623564451878904e-6 0.0
8.392083841673827e-5 3.920649536337197e-6 0.0
8.126008700654676e-5 4.171732807114978e-6 0.0
8.538456019249965e-5 3.3974846141586327e-6 0.0
8.288473655490927e-5 3.6771886341392838e-6 0.0
7.906908672568997e-5 4.3376983463022626e-6 0.0
8.052041739380707e-5 3.84682424760646e-6 0.0
7.725491276132218e-5 4.380970044600719e-6 0.0
7.840185527806478e-5 3.851082458247631e-6 0.0
7.543124049104341e-5 4.309006567869771e-6 0.0
7.644602547000317e-5 3.6625391235500173e-6 0.0
5.365563394895919e-5 3.2898743208632033e-6 0.0
4.9956583365264163e-5 2.6264003062832987e-6 0.0
5.288654442417973e-5 2.337307715014132e-6 0.0
4.990535378579236e-5 1.8842879891011337e-6 0.0
5.241950288728277e-5 1.6462580356899187e-6 0.0
4.9881762775873753e-5 1.3107545398039128e-6 0.0
5.210877747192453e-5 1.0821995191698153e-6 0.0
4.984118914450335e-5 7.985364558401643e-7 0.0
5.187659842811455e-5 5.871065601342645e-7 0.0
4.98000761645829e-5 3.365680274014053e-7 0.0
5.169679958194027e-5 1.4185900444338682e-7 0.0
4.976616366053886e-5 -8.615089434544725e-8 0.0
5.1556611114646096e-5 -2.824643439538415e-7 0.0
4.978643452212975e-5 -4.902023284075652e-7 0.0
5.14449086286117e-5 -6.828212805780377e-7 0.0
4.975910263177334e-5 -8.810608960195155e-7 0.0
5.134442038723404e-5 -1.068259795724619e-6 0.0
4.968053153562679e-5 -1.2598373839466931e-6 0.0
5.1248335800124857e-5 -1.444286026461994e-6 0.0
4.9643133956368234e-5 -1.6285780519293235e-6 0.0
5.116863270445631e-5 -1.8146238218705426e-6 0.0
4.961372732571138e-5 -1.9940158315064887e-6 0.0
5.104882545092509e-5 -2.179594764632892e-6 0.0
4.957684454286152e-5 -2.3593602817050055e-6 0.0
5.097685584798398e-5 -2.546212430871479e-6 0.0
4.956943187265687e-5 -2.7170745417118466e-6 0.0
5.0916031814465225e-5 -2.9137130317164176e-6 0.0
4.946927224924515e-5 -3.0624545582826155e-6 0.0
5.0843182214515206e-5 -3.2828096123218817e-6 0.0
4.910408278728966e-5 -3.4364731267077377e-6 0.0
5.086614096669547e-5 -3.6633168056240786e-6 0.0
4.94072720328834e-5 -3.840865150018647e-6 0.0
5.080422313419916e-5 -4.045602616175499e-6 0.0
4.943141352071576e-5 -4.23422856101778e-6 0.0
5.0767296443754706e-5 -4.439845365986697e-6 0.0
4.949502494894632e-5 -4.6319673625669105e-6 0.0
5.072657834601726e-5 -4.841063224510514e-6 0.0
4.9493819332164874e-5 -5.044920021162608e-6 0.0
4.788693585612375e-5 5.952711628495919e-7 0.0
5.068695944585334e-5 -5.2547722422063e-6 0.0
4.806364687529127e-5 -1.4176341994365765e-6 0.0
4.7808572521766764e-5 -3.7337745770691727e-6 0.0
4.939332445950529e-5 -5.464071329932243e-6 0.0
5.063967945581553e-5 -5.681084510079247e-6 0.0
4.9297178004072574e-5 -5.9115173159152025e-6 0.0
4.806601565656611e-5 -5.652038850161123e-6 0.0
4.794257735783872e-5 -6.1229223978804985e-6 0.0
5.0544674001091344e-5 -6.146832893327237e-6 0.0
5.1899125441873176e-5 -5.89884690743042e-6 0.0
5.212405144112524e-5 -3.8409998184695495e-6 0.0
5.1809279635921255e-5 -6.379036168621744e-6 0.0
5.323991532536698e-5 -6.0836589984530995e-6 0.0
5.310129082274771e-5 -6.6092816637424935e-6 0.0
4.672067090713203e-5 -5.849644457410925e-6 0.0
4.664958171294e-5 -6.313672720567536e-6 0.0
5.456935679435142e-5 -6.286831885485982e-6 0.0
4.534727772142408e-5 -6.024089499939045e-6 0.0
4.535937860308357e-5 -6.513664654957107e-6 0.0
5.445254115943461e-5 -6.819944107622646e-6 0.0
5.586755964110618e-5 -6.521428191547983e-6 0.0
4.396573388249457e-5 -6.2030873321855105e-6 0.0
4.3948680247914895e-5 -6.710561111548318e-6 0.0
5.5779525247179845e-5 -7.053075658496329e-6 0.0
5.722633139465559e-5 -6.736201552014557e-6 0.0
4.25907577442708e-5 -6.383990665534052e-6 0.0
4.2564719711300804e-5 -6.925622784136201e-6 0.0
5.71334752668734e-5 -7.297607215248917e-6 0.0
5.861049317655603e-5 -6.949299326583595e-6 0.0
4.122477499488875e-5 -6.53936449307535e-6 0.0
4.110878840889942e-5 -7.1021461732611596e-6 0.0
5.853504123437922e-5 -7.527611674907537e-6 0.0
6.001168293267658e-5 -7.159819940253775e-6 0.0
3.9722056868077586e-5 -6.698185868761814e-6 0.0
3.9643551126471594e-5 -7.298899211826849e-6 0.0
3.81787092965303e-5 -6.898446659069679e-6 0.0
3.824390191572986e-5 -6.262193494344204e-6 0.0
5.6923253213960145e-5 -7.854972764454376e-6 0.0
5.992934530645045e-5 -7.763702391217632e-6 0.0
6.14275563561535e-5 -7.369641203940918e-6 0.0
6.153707542713743e-5 -6.751607342339846e-6 0.0
5.249668102214964e-5 -2.0085446261033476e-6 0.0
6.300129455282648e-5 -6.951434835256679e-6 0.0
6.312611087370288e-5 -6.311994966520342e-6 0.0
6.462755643067331e-5 -6.493358812506382e-6 0.0
3.8221874593904926e-5 -7.553467350963357e-6 0.0
3.668901511327571e-5 -7.083851063894898e-6 0.0
3.965650414356167e-5 -7.949700929513868e-6 0.0
6.130309907351319e-5 -8.008628017283241e-6 0.0
3.6748263844800576e-5 -7.762926402834314e-6 0.0
3.519690179405963e-5 -7.25621058189215e-6 0.0
5.3226496889254014e-5 -4.423599955345804e-7 0.0
3.524570924935303e-5 -7.928509411206457e-6 0.0
3.369810160917375e-5 -7.4131869772499375e-6 0.0
3.374716910074892e-5 -8.109864746078651e-6 0.0
3.2219456603936455e-5 -7.543290698165068e-6 0.0
3.213639718611224e-5 -6.864968676707404e-6 0.0
3.0573848349994136e-5 -7.016251122556687e-6 0.0
3.051031713380152e-5 -6.299301128539139e-6 0.0
3.208354728512268e-5 -8.24503614680828e-6 0.0
2.8837194068201093e-5 -6.461982985894719e-6 0.0
2.8759080900390818e-5 -5.727748354773926e-6 0.0
3.380232163533524e-5 -8.855273134060492e-6 0.0
3.2384093880298426e-5 -9.049844149793538e-6 0.0
2.7127762022352048e-5 -5.8326695508986375e-6 0.0
2.6994942648754267e-5 -5.1205556647615875e-6 0.0
6.479726028068109e-5 -5.847929198969375e-6 0.0
6.634840228153951e-5 -6.023510687938742e-6 0.0
3.384657395503313e-5 -9.618804469120222e-6 0.0
3.2439220159031826e-5 -9.81623436553237e-6 0.0
6.653678373809337e-5 -5.3603735875269345e-6 0.0
6.815177023737244e-5 -5.54532137905811e-6 0.0
6.790187485560514e-5 -6.275401838076976e-6 0.0
6.970765979581763e-5 -5.761209939836298e-6 0.0
6.949532669542993e-5 -6.515322170951533e-6 0.0
7.12965000597042e-5 -5.94659713075611e-6 0.0
7.118495749903709e-5 -6.705388934628013e-6 0.0
7.303819908520691e-5 -6.063866998485916e-6 0.0
7.278155260499018e-5 -6.844614092973103e-6 0.0
7.314709569834142e-5 -5.338065148451332e-6 0.0
7.466027124878834e-5 -6.2209768999823765e-6 0.0
7.431865176791006e-5 -7.007059054363457e-6 0.0
3.389940488683997e-5 -1.040460874804587e-5 0.0
2.5282160351262023e-5 -5.210052156675429e-6 0.0
2.5117238876918016e-5 -4.490396704958786e-6 0.0
7.259598731216245e-5 -7.659710501016534e-6 0.0
7.409062906101224e-5 -7.823497020886918e-6 0.0
7.578393129049598e-5 -7.162762800105341e-6 0.0
7.249258343479551e-5 -8.513194348130801e-6 0.0
3.251854489097367e-5 -1.061350727139797e-5 0.0
7.557812293319986e-5 -7.985484284750555e-6 0.0
7.722767277565017e-5 -7.304681189154003e-6 0.0
3.394115859967602e-5 -1.1221190507127278e-5 0.0
3.257989780867975e-5 -1.1442190742768898e-5 0.0
3.118068047584546e-5 -1.0806312691664612e-5 0.0
7.70257621283125e-5 -8.134041245211806e-6 0.0
7.864622049626397e-5 -7.422460331437585e-6 0.0
3.397105879150045e-5 -1.2071446818794614e-5 0.0
3.531910419940301e-5 -1.1838345164313571e-5 0.0
3.1251307303547155e-5 -1.1647783395202585e-5 0.0
2.9866528712157458e-5 -1.0987666682428974e-5 0.0
7.8410399292721e-5 -8.269236399401844e-6 0.0
8.006208681975559e-5 -7.526861175593365e-6 0.0