# vtk DataFile Version 2.0
phase field modeling fracture
ASCII
DATASET UNSTRUCTURED_GRID
POINTS 2538 float
0.0 0.0 0.0
10.0 0.0 0.0
0.0 10.0 0.0
10.0 10.0 0.0
0.0 4.9995 0.0
0.0 5.0005 0.0
5.0 5.0 0.0
0.9416964895726688 0.0 0.0
1.803581725054446 0.0 0.0
2.592419885431098 0.0 0.0
3.314401822861676 0.0 0.0
3.975193910351406 0.0 0.0
4.579982132660152 0.0 0.0
5.133512780936812 0.0 0.0
5.640130319506143 0.0 0.0
6.103810708661955 0.0 0.0
6.528192895506818 0.0 0.0
6.916607540127679 0.0 0.0
7.272102969376355 0.0 0.0
7.597469242948583 0.0 0.0
7.895259826292669 0.0 0.0
8.167811885738017 0.0 0.0
8.417264413845215 0.0 0.0
8.645575169389538 0.0 0.0
8.854535961159101 0.0 0.0
9.045786767735546 0.0 0.0
9.220828555767493 0.0 0.0
9.38103509633881 0.0 0.0
9.527663687265145 0.0 0.0
9.661865124984566 0.0 0.0
9.784692609918062 0.0 0.0
9.897110148790482 0.0 0.0
10.0 0.09999999999992584 0.0
10.0 0.199999999999856 0.0
10.0 0.2999999999997771 0.0
10.0 0.3999999999996677 0.0
10.0 0.4999999999995511 0.0
10.0 0.5999999999994683 0.0
10.0 0.6999999999993983 0.0
10.0 0.7999999999993286 0.0
10.0 0.8999999999992587 0.0
10.0 0.9999999999991888 0.0
10.0 1.099999999999119 0.0
10.0 1.199999999999033 0.0
10.0 1.299999999998852 0.0
10.0 1.399999999998576 0.0
10.0 1.499999999998284 0.0
10.0 1.599999999997992 0.0
10.0 1.6999999999977 0.0
10.0 1.799999999997408 0.0
10.0 1.899999999997116 0.0
10.0 1.999999999996825 0.0
10.0 2.099999999996533 0.0
10.0 2.199999999996241 0.0
10.0 2.299999999995949 0.0
10.0 2.399999999995657 0.0
10.0 2.499999999995365 0.0
10.0 2.599999999995073 0.0
10.0 2.699999999994782 0.0
10.0 2.79999999999449 0.0
10.0 2.899999999994198 0.0
10.0 2.999999999993906 0.0
10.0 3.099999999993614 0.0
10.0 3.199999999993322 0.0
10.0 3.299999999993029 0.0
10.0 3.399999999992738 0.0
10.0 3.499999999992446 0.0
10.0 3.599999999992154 0.0
10.0 3.699999999991863 0.0
10.0 3.799999999991571 0.0
10.0 3.899999999991278 0.0
10.0 3.999999999991022 0.0
10.0 4.099999999991035 0.0
10.0 4.199999999991187 0.0
10.0 4.299999999991338 0.0
10.0 4.399999999991491 0.0
10.0 4.499999999991642 0.0
10.0 4.599999999991795 0.0
10.0 4.699999999991947 0.0
10.0 4.799999999992099 0.0
10.0 4.89999999999225 0.0
10.0 4.999999999992403 0.0
10.0 5.099999999992555 0.0
10.0 5.199999999992706 0.0
10.0 5.299999999992858 0.0
10.0 5.39999999999301 0.0
10.0 5.499999999993161 0.0
10.0 5.599999999993313 0.0
10.0 5.699999999993466 0.0
10.0 5.799999999993618 0.0
10.0 5.899999999993771 0.0
10.0 5.999999999993922 0.0
10.0 6.099999999994074 0.0
10.0 6.199999999994227 0.0
10.0 6.299999999994378 0.0
10.0 6.39999999999453 0.0
10.0 6.499999999994682 0.0
10.0 6.599999999994833 0.0
10.0 6.699999999994986 0.0
10.0 6.799999999995138 0.0
10.0 6.899999999995289 0.0
10.0 6.999999999995442 0.0
10.0 7.099999999995594 0.0
10.0 7.199999999995747 0.0
10.0 7.299999999995897 0.0
10.0 7.39999999999605 0.0
10.0 7.499999999996202 0.0
10.0 7.599999999996353 0.0
10.0 7.699999999996505 0.0
10.0 7.799999999996658 0.0
10.0 7.899999999996808 0.0
10.0 7.999999999996962 0.0
10.0 8.099999999997113 0.0
10.0 8.199999999997265 0.0
10.0 8.299999999997418 0.0
10.0 8.399999999997569 0.0
10.0 8.499999999997721 0.0
10.0 8.599999999997873 0.0
10.0 8.699999999998024 0.0
10.0 8.799999999998176 0.0
10.0 8.899999999998329 0.0
10.0 8.99999999999848 0.0
10.0 9.099999999998634 0.0
10.0 9.199999999998786 0.0
10.0 9.299999999998937 0.0
10.0 9.399999999999089 0.0
10.0 9.499999999999241 0.0
10.0 9.599999999999392 0.0
10.0 9.699999999999545 0.0
10.0 9.799999999999697 0.0
10.0 9.899999999999848 0.0
9.897110148790565 10.0 0.0
9.784692609918244 10.0 0.0
9.66186512498486 10.0 0.0
9.527663687265571 10.0 0.0
9.381035096339392 10.0 0.0
9.220828555768257 10.0 0.0
9.045786767736512 10.0 0.0
8.854535961160305 10.0 0.0
8.645575169391027 10.0 0.0
8.417264413847017 10.0 0.0
8.167811885740178 10.0 0.0
7.895259826295246 10.0 0.0
7.597469242951631 10.0 0.0
7.272102969379938 10.0 0.0
6.916607540131873 10.0 0.0
6.528192895511704 10.0 0.0
6.103810708667616 10.0 0.0
5.640130319512691 10.0 0.0
5.13351278094435 10.0 0.0
4.579982132668816 10.0 0.0
3.975193910361222 10.0 0.0
3.314401822869852 10.0 0.0
2.592419885437257 10.0 0.0
1.803581725058137 10.0 0.0
0.9416964895740705 10.0 0.0
0.0 9.00010000000243 0.0
0.0 8.000200000005481 0.0
0.0 7.000300000005135 0.0
0.0 6.000400000002569 0.0
0.901790731451151 5.000409820926855 0.0
1.657200899774397 5.000334279910023 0.0
2.289991063707192 5.000271000893629 0.0
2.820065163538221 5.000217993483646 0.0
3.264096435579811 5.000173590356442 0.0
3.636051481595835 5.00013639485184 0.0
3.947629914072366 5.000105237008593 0.0
4.208632181002628 5.0000791367819 0.0
4.427267949625672 5.000057273205037 0.0
4.610414277633563 5.000038958572237 0.0
4.763831845154243 5.000023616815485 0.0
4.892346298799659 5.00001076537012 0.0
4.892346298799748 4.99998923462988 0.0
4.763831845154455 4.999976383184515 0.0
4.610414277633943 4.999961041427763 0.0
4.427267949626277 4.999942726794963 0.0
4.208632181003523 4.9999208632181 0.0
3.94762991407365 4.999894762991407 0.0
3.636051481597624 4.99986360514816 0.0
3.264096435582253 4.999826409643559 0.0
2.820065163541503 4.999782006516354 0.0
2.289991063711534 4.999728999106371 0.0
1.657200899778495 4.999665720089978 0.0
0.9017907314530094 4.999590179073145 0.0
0.0 3.999600000002013 0.0
0.0 2.999700000005187 0.0
0.0 1.99980000000512 0.0
0.0 0.9999000000025537 0.0
9.897889398521345 2.93573355845387 0.0
9.906568249974548 7.060009441434234 0.0
9.913122631074113 3.64016132281653 0.0
9.922462129543863 6.354535290629151 0.0
9.917693659967533 4.354211663134567 0.0
9.909873057440208 5.637584487339942 0.0
9.914183254994697 4.950672966925282 0.0
9.913885043715895 7.666887930262611 0.0
9.91009668007573 2.351889069770817 0.0
9.905135696074536 8.138152454502785 0.0
9.913397459621809 1.849999999997262 0.0
7.099302372137626 0.297750452375005 0.0
7.095143729410097 9.700359990366296 0.0
4.942912558701401 5.095838627899509 0.0
4.315009232304429 5.165022115481685 0.0
4.946182472483878 4.906763777264103 0.0
4.317967462990024 4.825955043772673 0.0
9.916390871492647 8.64999999999792 0.0
9.921504649680616 1.368376469890358 0.0
8.292538149791614 0.206877570318844 0.0
8.292538149793597 9.793122429681448 0.0
5.884594439766573 9.587645267048616 0.0
5.794826292691579 0.3794853783929359 0.0
9.913397459621425 9.049999999998557 0.0
9.908526577714177 0.9568239351922434 0.0
3.456851160380649 5.315740054130451 0.0
3.457889657868442 4.707121019609468 0.0
8.945214200703926 0.1503383337970344 0.0
8.950161364448409 9.8413906539257 0.0
9.913862335499305 4.055887885208452 0.0
9.916697353372683 4.650158482607802 0.0
9.919076340414442 6.049999999994006 0.0
9.906994308667635 5.25749687748192 0.0
9.917490342358025 6.655979201891897 0.0
9.915757520293784 7.343848891656911 0.0
9.910049507471042 3.363474386285078 0.0
9.914471988502868 2.647400064832979 0.0
9.91474124160965 9.337490423485129 0.0
9.916971008170838 0.6499999999994355 0.0
4.307157269264427 9.509674045029644 0.0
4.331527375865619 0.4401616696422582 0.0
9.45434939180249 9.878397030523757 0.0
9.457696120412969 0.1270877537061785 0.0
2.555070293622606 5.422044496190925 0.0
2.566232917480916 4.608001224030952 0.0
3.026511860837692 9.332320638257093 0.0
2.945561971800619 0.5895662714727601 0.0
7.7395404387124 0.2511088946967771 0.0
7.736379255744154 9.745848826372828 0.0
4.687135269408529 5.122111433928926 0.0
4.688420821504113 4.871895064967488 0.0
9.910554884115975 0.3448356354522978 0.0
9.911230082250466 9.65764729394159 0.0
9.921953841410854 6.851023993342036 0.0
9.912065178606017 5.448170483544033 0.0
9.911660025326261 3.861846960030188 0.0
9.914847467973438 3.14501593945607 0.0
9.913397459621425 5.849999999993703 0.0
9.913397459621425 7.849999999996735 0.0
9.906916878988277 2.15455769998631 0.0
9.913397459621425 8.349999999997479 0.0
9.909472363117661 1.640528221515488 0.0
9.913987325695956 1.152857110636247 0.0
9.913397459621425 8.849999999998241 0.0
0.9100099990995943 2.614215977520411 0.0
0.8395284981715456 7.451196254860987 0.0
9.723278867451556 9.898135916635193 0.0
9.723316350887044 0.09841820909386662 0.0
1.385819164827588 4.454539963646463 0.0
1.338343629665047 5.523111536005823 0.0
1.377179700550677 0.6809168304959698 0.0
1.418060461092743 9.285896715136046 0.0
9.91268220142518 0.1457914080939694 0.0
9.906737126737994 9.845745933882352 0.0
0.7108351382691361 6.537941170074089 0.0
1.527735020267026 6.915620208855231 0.0
1.630993885659103 7.838271825205868 0.0
2.232760943566823 7.370850737296832 0.0
2.243414218068206 6.688299277952821 0.0
2.779655053105118 7.021588754814074 0.0
2.80227799359795 7.632420170547022 0.0
3.282022065908813 7.305859666021318 0.0
3.327597298795347 7.857554136825748 0.0
3.743210251018715 7.549183328204379 0.0
3.716353232200752 7.062036086888612 0.0
4.111978858674101 7.27497101169417 0.0
4.104192177581432 6.879858986267289 0.0
4.436230765617037 7.045693351607117 0.0
4.430360014817357 6.703971783962796 0.0
4.732390145036301 6.849841042423394 0.0
5.056161327708878 5.095276573498806 0.0
5.111586796021131 4.999081142133581 0.0
5.169267363407189 5.09444870412406 0.0
5.223795108752053 4.996986220359468 0.0
5.281480803887719 5.092780870372803 0.0
5.335670761900611 4.994887492556936 0.0
5.393485214772442 5.090486192743301 0.0
5.447323082877892 4.992601527033996 0.0
5.505243219343024 5.087953380710069 0.0
5.558739102026105 4.990287787962959 0.0
5.616491581184779 5.085335255235766 0.0
5.669852346908056 4.9879269227514 0.0
5.727502713908907 5.082679981817038 0.0
5.780766004135139 4.988313988715834 0.0
5.838244881129535 5.080480568766611 0.0
5.891357695677371 4.986433849408193 0.0
5.948696036767613 5.077969900389505 0.0
6.001601341641615 4.981313698556656 0.0
6.058851024265095 5.074871552128682 0.0
6.111614020704875 4.978360695880202 0.0
6.168801161530775 5.072044953270978 0.0
6.221368818778567 4.975825765213497 0.0
6.278268309066882 5.066182320461055 0.0
6.330814273567539 4.972837984645718 0.0
6.387565032421376 5.062889771971895 0.0
6.437476667631405 4.971693683589553 0.0
[...]
POINT_DATA 2538
VECTORS disp float
9.31797527048249e-12 1.0705225883688077e-11 0.0
4.6354179468959946e-14 -4.148679525464252e-12 0.0
0.0008000000000362871 1.2281084369815912e-12 0.0
0.000799999979594252 -2.966063588979881e-11 0.0
0.0004115995850475007 0.0002233020308628382 0.0
0.0006117603416290837 4.27886268537047e-6 0.0
0.0004995698310252099 -5.150770047569438e-5 0.0
-2.1391255288132867e-12 -2.7523205545131407e-12 0.0
6.646101072230144e-13 7.743655729191408e-13 0.0
2.0027868806109284e-13 -9.223062677339585e-13 0.0
1.0827793483382938e-13 -6.518247683798519e-13 0.0
-2.4567432558641337e-14 -8.969281882977821e-13 0.0
6.387271089040698e-14 -1.0505419917658448e-12 0.0
5.3150289861505375e-14 -1.0809164118861186e-12 0.0
8.088284032184838e-14 -1.189934249039506e-12 0.0
7.470254692680387e-14 -1.2513480068649536e-12 0.0
9.525297351558693e-14 -1.2622409046770821e-12 0.0
8.805042417618633e-14 -1.275942924863911e-12 0.0
9.187772670842991e-14 -1.2765870395900544e-12 0.0
8.65333728176276e-14 -1.291372636596633e-12 0.0
9.04911391556955e-14 -1.2730325333773921e-12 0.0
8.662872280203825e-14 -1.3178354217789986e-12 0.0
1.1436620312260042e-13 -1.2655466795651701e-12 0.0
1.2233259836989036e-13 -1.2959711746739047e-12 0.0
9.784568981120602e-14 -1.32793600075691e-12 0.0
1.1835324315417247e-13 -1.3370727243883248e-12 0.0
1.0481945697040153e-13 -1.389922881786411e-12 0.0
9.120960932598932e-14 -1.436592807943574e-12 0.0
1.0562177557472934e-13 -1.4829109381625108e-12 0.0
1.245188473843075e-13 -1.4735798362733452e-12 0.0
1.5891615094702153e-13 -1.6238114171866187e-12 0.0
2.1228440991935744e-13 -1.2148085381219075e-12 0.0
6.714211252657258e-6 -2.7981900119407275e-6 0.0
1.4288377280047342e-5 -5.1547509233622406e-6 0.0
2.1911164417524992e-5 -7.33396593195786e-6 0.0
2.9533637016970508e-5 -9.3512423053415e-6 0.0
3.715126629112528e-5 -1.1279537240293588e-5 0.0
4.4797723831211086e-5 -1.3154749221292704e-5 0.0
5.265714292073595e-5 -1.4965904201292748e-5 0.0
6.036616285484819e-5 -1.67605232804492e-5 0.0
6.778975183089566e-5 -1.8518826780026103e-5 0.0
7.487960717706697e-5 -2.0217373571298536e-5 0.0
8.163917413900601e-5 -2.192132491674187e-5 0.0
8.797235816332866e-5 -2.3599409871464885e-5 0.0
9.39445303094285e-5 -2.521901303337432e-5 0.0
9.975102463967625e-5 -2.6823088260038503e-5 0.0
0.00010535140910099386 -2.8476386901055634e-5 0.0
0.00011065914156472146 -3.0172949566265257e-5 0.0
0.00011599125418104386 -3.1838694776202386e-5 0.0
0.00012146180368896661 -3.3413826155149635e-5 0.0
0.00012717558839974 -3.491161444019381e-5 0.0
0.0001332530147924377 -3.632866502451382e-5 0.0
0.00013971308379501476 -3.768989645625761e-5 0.0
0.00014633047055437933 -3.9013600516212495e-5 0.0
0.0001534003260059348 -4.033129636358962e-5 0.0
0.00016058413266972072 -4.1630461365150314e-5 0.0
0.00016826742406068294 -4.291460970281211e-5 0.0
0.0001760009510219741 -4.417511050677253e-5 0.0
0.00018400731029021637 -4.540285600055093e-5 0.0
0.0001922032511968022 -4.655488370365404e-5 0.0
0.00020082074471674006 -4.775706987910949e-5 0.0
0.0002092411210352021 -4.897832611702045e-5 0.0
0.0002178721016881529 -5.019407391306546e-5 0.0
0.0002265266980856849 -5.131254621285188e-5 0.0
0.00023517807969577093 -5.238315662400402e-5 0.0
0.00024375785341950004 -5.337802343722669e-5 0.0
0.00025248524245735903 -5.4309185672346216e-5 0.0
0.0002618294008979538 -5.5007030948782115e-5 0.0
0.0002728877843022639 -5.545093902963786e-5 0.0
0.00028742142097456787 -5.5851442083873955e-5 0.0
0.0003041066858270181 -5.6162353548480784e-5 0.0
0.00031831886066912386 -5.623578307460339e-5 0.0
0.00032914104311923157 -5.654547175951382e-5 0.0
0.0003375950667149585 -5.700340512845313e-5 0.0
0.00034599988943869136 -5.68776523676694e-5 0.0
0.00035311282108791743 -5.713886453461449e-5 0.0
0.00035942701760252084 -5.781501788071537e-5 0.0
0.00036596031797256725 -5.856947978474666e-5 0.0
0.0003722142199303538 -5.9544344813376044e-5 0.0
0.0003776776204233285 -6.042148576320481e-5 0.0
0.00038286050320680435 -6.191879472923653e-5 0.0
0.000388041631878606 -6.347491639044601e-5 0.0
0.0003930720866949058 -6.506939146442504e-5 0.0
0.0003981616158138047 -6.665838978824172e-5 0.0
0.0004032121556761568 -6.823316693325144e-5 0.0
0.00040837753239655953 -6.999340447229491e-5 0.0
0.0004130839837447937 -7.138049428491248e-5 0.0
0.00041955828213261653 -7.247711244128404e-5 0.0
0.00042668664738235656 -7.326958685982822e-5 0.0
0.00043431541283509446 -7.419637417723121e-5 0.0
0.00044183876158034675 -7.520083794530544e-5 0.0
0.0004491157912538358 -7.62158552527877e-5 0.0
0.0004565761195092916 -7.734155747816117e-5 0.0
0.0004644023023824348 -7.824608023236624e-5 0.0
0.0004723294678996494 -7.88654045452164e-5 0.0
0.0004796464769372452 -7.945742721960698e-5 0.0
0.0004869526619138116 -8.008769366018445e-5 0.0
0.0004941687627702855 -8.064981447827052e-5 0.0
0.0005011208540514558 -8.120243969270213e-5 0.0
0.0005079778771857262 -8.179434367292764e-5 0.0
0.0005149949283556939 -8.23245721727059e-5 0.0
0.0005221353946381074 -8.294181616323844e-5 0.0
0.0005292959332175006 -8.361257554303453e-5 0.0
0.0005367737213797253 -8.44195741649316e-5 0.0
0.0005443089072605932 -8.541244317489887e-5 0.0
0.0005516917659735144 -8.606365382788237e-5 0.0
0.0005596483262189297 -8.665118690387834e-5 0.0
0.0005673612484964495 -8.740418615014327e-5 0.0
0.0005758244110021379 -8.792492492581773e-5 0.0
0.0005846624322968487 -8.842683821000172e-5 0.0
0.0005937996571258456 -8.857361287585593e-5 0.0
0.0006029362950382106 -8.824780714965152e-5 0.0
0.0006122467391536504 -8.76962456737568e-5 0.0
0.0006211970744656628 -8.671583550271576e-5 0.0
0.0006295548896712226 -8.59898779157912e-5 0.0
0.0006378861553870958 -8.545899991913014e-5 0.0
0.0006454884491350854 -8.501041079599416e-5 0.0
0.0006526292749089907 -8.470297248722038e-5 0.0
0.00065974614559735 -8.436599718297688e-5 0.0
0.0006663071653143027 -8.403071886769586e-5 0.0
0.0006726409111871748 -8.378112007573319e-5 0.0
0.0006796239345421052 -8.334014628469394e-5 0.0
0.0006872689290247984 -8.23279044269694e-5 0.0
0.0006944547566420576 -8.054968275015613e-5 0.0
0.0007017927693412993 -7.814039289432717e-5 0.0
0.000709273122009328 -7.507627332503295e-5 0.0
0.0007180236144845325 -7.11706718569951e-5 0.0
0.0007268704750752454 -6.546215245906479e-5 0.0
0.0007347392904803688 -5.656517809496384e-5 0.0
0.000747901497824016 -4.60178435503043e-5 0.0
0.0007623878133901703 -3.087036637386292e-5 0.0
0.0008000000027196062 2.9161801357634303e-12 0.0
0.0007999999979026357 -2.5268064480990874e-12 0.0
0.0007999999998900326 7.845329720183084e-13 0.0
0.0007999999992911995 2.6684144425745574e-13 0.0
0.0007999999997355278 6.40245974184394e-13 0.0
0.0007999999996390868 7.893800580532898e-13 0.0
0.0007999999997315575 8.166618021554216e-13 0.0
0.0007999999997155636 8.47711033101697e-13 0.0
0.0007999999996856555 8.657670652148583e-13 0.0
0.0007999999996883514 8.354369723379443e-13 0.0
0.0007999999996788848 8.618684177418362e-13 0.0
0.0007999999996889785 8.773153854403966e-13 0.0
0.0007999999996852222 9.121847590366826e-13 0.0
0.0007999999996836035 9.242361678973667e-13 0.0
0.0007999999996776642 9.241614276545411e-13 0.0
0.0007999999996584474 8.883509506040601e-13 0.0
0.0007999999996172387 8.318736269586438e-13 0.0
0.000799999999619158 7.199897164885523e-13 0.0
0.0007999999995295867 7.111375338045001e-13 0.0
0.000799999999668217 6.569391910817659e-13 0.0
0.0007999999996565205 6.493186230605031e-13 0.0
0.0007999999996262454 6.16454052902868e-13 0.0
0.0007999999997643589 5.652503552428472e-13 0.0
0.0007999999998477589 7.830718795012153e-13 0.0
0.0007999999999206468 5.925253854643437e-13 0.0
0.0007500088879751549 1.252910821715649e-5 0.0
0.0007134897885150813 1.5925391820346548e-5 0.0
0.0006755960878982182 1.2382976398235872e-5 0.0
0.0006399312932202299 7.006479155662835e-6 0.0
0.0006083154009394561 -2.6247708311184815e-5 0.0
0.0006057744070282418 -4.637445191929187e-5 0.0
0.0006042152414406745 -6.564365004818128e-5 0.0
0.0006005237323177044 -7.946100274130026e-5 0.0
0.0005953602507194821 -8.984664692183731e-5 0.0
0.000588267303385291 -9.832271785424004e-5 0.0
0.0005806026162070122 -0.00010407490482184637 0.0
0.0005712266121067624 -0.00010841630574216554 0.0
0.0005633661659677926 -0.00011247337159000863 0.0
0.000555482289467497 -0.0001114332909615801 0.0
0.0005442403353506063 -0.00010370867047399887 0.0
0.0005285050737599648 -8.754159447795081e-5 0.0
0.0004877203688848131 -3.264540866939202e-5 0.0
0.00047897876256363194 -2.0055205179834945e-5 0.0
0.0004711663150634578 -8.842914349413811e-6 0.0
0.00046343708075539627 3.8148018355644105e-6 0.0
0.000455479519969019 1.7119928082524738e-5 0.0
0.0004481184037828964 3.147523981390883e-5 0.0
0.0004404110661174467 4.758195710445668e-5 0.0
0.000432692983005782 6.480146626084095e-5 0.0
0.000425993609277427 8.732780178001305e-5 0.0
0.00041924455971777916 0.00011084061069953778 0.0
0.0004154746112763989 0.0001387501798854295 0.0
0.00040826780132894615 0.00017627819797002387 0.0
0.00037141126661325636 0.00022440443737172376 0.0
0.00031298845811365773 0.00022421728430245403 0.0
0.0002617789128586944 0.00021349540237512057 0.0
0.0002032893718817419 0.00017088092568108847 0.0
0.00020344108673213718 -4.2635562625069026e-5 0.0
0.0005259646355216835 -7.727282737744449e-5 0.0
0.00026605716014764053 -4.944877511099597e-5 0.0
0.00047586643874231106 -7.375355248230471e-5 0.0
0.00034973026431798474 -5.523393274174085e-5 0.0
0.00042178901206000674 -6.752723607831164e-5 0.0
0.0003844611580169254 -6.0276470939964736e-5 0.0
0.0005727857804688644 -8.064167011793651e-5 0.0
0.00015677684697621992 -3.649258487929244e-5 0.0
0.0006162899850719141 -7.915760377780582e-5 0.0
0.00012397205748695004 -2.99039514882501e-5 0.0
1.8435851801706117e-5 -2.8967658470920672e-6 0.0
0.0007715162409222004 6.788233734375702e-7 0.0
0.0004992489484106818 -5.962374685836032e-5 0.0
0.000559360628183694 -0.00010530732435918902 0.0
0.0004654229723625372 -3.7692545008061865e-5 0.0
0.00043401864711434604 1.2824489015681354e-5 0.0
0.0006562883516185341 -7.772869798123532e-5 0.0
9.756182323796449e-5 -2.2661646578555317e-5 0.0
1.2877077130162382e-5 -2.00920453610086e-6 0.0
0.0007802927954807569 3.219942226725944e-7 0.0
0.0007605439317078303 9.987553630944676e-8 0.0
2.311347330694389e-5 -3.646632691932457e-6 0.0
0.0006840687165358753 -7.28676542720477e-5 0.0
7.140766566865212e-5 -1.5071824831324077e-5 0.0
0.0005880244903542445 -8.830354544908648e-5 0.0
0.0004055735194741747 5.7294136046632467e-5 0.0
9.307942629238675e-6 -1.4312468654972177e-6 0.0
0.0007847834983789691 1.3674388669749056e-7 0.0
0.0003241797599524119 -5.34108208127227e-5 0.0
0.00036847136918832145 -5.734989018208528e-5 0.0
0.00045204539057477926 -7.09546711757873e-5 0.0
0.00039979809666244827 -6.425800758906991e-5 0.0
0.0004976985757841679 -7.577118456103246e-5 0.0
0.0005471273008856831 -7.93453255618516e-5 0.0
0.00024042074375702096 -4.739577414163808e-5 0.0
0.0001794658899925859 -4.0242816984137363e-5 0.0
0.000706422796133272 -6.431644565119464e-5 0.0
4.836860982237884e-5 -9.926668739425243e-6 0.0
0.0007581640430850907 -1.3012152050912696e-6 0.0
2.5640138886066136e-5 -2.8709815550041587e-6 0.0
0.0007864365668782219 -1.194628595322366e-6 0.0
7.980498299880228e-6 -1.3872146774778198e-6 0.0
0.000606516407555231 -6.889151014574215e-5 0.0
0.0003931429896812855 9.957941870394786e-5 0.0
0.0007520431264044098 -1.9341343534246988e-6 0.0
3.928471670942299e-5 1.2267327105005225e-6 0.0
1.5507882285154047e-5 -2.4878403698494554e-6 0.0
0.0007758829019408613 4.95974196823045e-7 0.0
0.0005353040085163789 -0.00010012657564425222 0.0
0.00045098497053377756 -1.2589546142048326e-5 0.0
2.5045862017067456e-5 -4.708235079331021e-6 0.0
0.0007375588596010989 -4.407657082306838e-5 0.0
0.0005112471559787316 -7.71548935593987e-5 0.0
0.00040972950351556904 -6.709657192855269e-5 0.0
0.000297617589758636 -5.101848779994649e-5 0.0
0.00022150939143346946 -4.5633862941594126e-5 0.0
0.0004373920289192667 -6.875104550727515e-5 0.0
0.0005891659623558359 -8.074938678842664e-5 0.0
0.00014297238965234584 -3.379547247408573e-5 0.0
0.0006339284492570001 -7.876957965231515e-5 0.0
0.00011238675710718324 -2.67028370107561e-5 0.0
8.461777766920104e-5 -1.8704513814376777e-5 0.0
0.0006696074859437102 -7.601713132715447e-5 0.0
0.0002799374626371886 0.00013671127126736938 0.0
0.0006854769673080632 -7.807864029826043e-6 0.0
0.000784395270741598 -3.145135695017083e-6 0.0
6.280599707968905e-6 -1.099411027123584e-6 0.0
0.0003843996521404067 0.00015499770780235398 0.0
0.0006189866135776354 -3.579164799154643e-5 0.0
5.145274597974137e-5 7.660779545086905e-6 0.0
0.0007616256680812171 6.324042280501612e-7 0.0
9.92881282267947e-6 -1.8039722887126286e-6 0.0
0.0007637448807744731 -1.8992605788329646e-5 0.0
0.0006536991836455269 -1.359362385780596e-5 0.0
0.0006555907474507435 -2.568024057604973e-5 0.0
0.0006901036738508874 -1.3593940774790983e-5 0.0
0.000659054096755364 -2.5565807473807104e-5 0.0
0.0006312763679889115 -4.0453931630885745e-5 0.0
0.0006297748796498772 -3.716790039939076e-5 0.0
0.0006573877231470832 -2.3194514995839094e-5 0.0
0.0006287620189063517 -3.0371953404579278e-5 0.0
0.0006577928828527395 -1.9306526245050382e-5 0.0
0.0006305805622414944 -2.3912300465515736e-5 0.0
0.0006041393486048722 -3.466840360766213e-5 0.0
0.000605538198699665 -2.696268287014369e-5 0.0
0.0005827782523007724 -3.571144675999985e-5 0.0
0.0005837029766718668 -2.843473129156551e-5 0.0
0.0005642261730066649 -3.523281363459074e-5 0.0
0.0005650568826598591 -2.7132437461752543e-5 0.0
0.0004911997282145633 -4.147754709473768e-5 0.0
0.0004879682171130275 -4.157506037905325e-5 0.0
0.00048339241942160066 -3.385047343492082e-5 0.0
0.00047793295656447697 -3.6774213533299214e-5 0.0
0.0004757979779306849 -3.000576402644591e-5 0.0
0.0004697186291371169 -3.243057525918707e-5 0.0
0.0004691656264625193 -2.6633169253475043e-5 0.0
0.0004626695462867378 -2.8910247488339067e-5 0.0
0.00046362524616150796 -2.4352975642229427e-5 0.0
0.00045633127593870746 -2.70021347073058e-5 0.0
0.0004584372762222071 -2.3101285449480254e-5 0.0
0.00045112915547017524 -2.5106595137691247e-5 0.0
0.0004538224054246628 -2.1722360413415173e-5 0.0
0.00044670177139276323 -2.3155259620308366e-5 0.0
0.000449591716070564 -2.0005114399433434e-5 0.0
0.00044244572537852176 -2.1336707459945403e-5 0.0
0.0004457823352123709 -1.868692748776087e-5 0.0
0.0004382692499701979 -2.02222262227499e-5 0.0
0.000442124388625095 -1.771986454595807e-5 0.0
0.00043467745165277243 -1.8883552970615615e-5 0.0
0.0004387365951135588 -1.6580933769406978e-5 0.0
0.00043132661256633164 -1.7710109815626554e-5 0.0
0.00043534219326341815 -1.5676314311977785e-5 0.0
0.0004281045543410806 -1.681012298806361e-5 0.0
0.00043226614585378814 -1.5027332870080045e-5 0.0
0.0004252767484796035 -1.6092270066270123e-5 0.0
0.00042931847440991883 -1.4360669559248551e-5 0.0
0.0004221996827200083 -1.5611317411342327e-5 0.0
0.0004264176199030218 -1.3951539742179732e-5 0.0
0.00041780240060894147 -1.5574125897544143e-5 0.0
0.00042397697856788575 -1.3713313150071828e-5 0.0
0.00041648322621665754 -1.4813654106871991e-5 0.0
0.00042140439640288177 -1.3495032395374793e-5 0.0
0.0004141604639602266 -1.465727702212713e-5 0.0
0.0004189843599957513 -1.3513097640373777e-5 0.0
0.0004121386694405874 -1.4645709114727493e-5 0.0
0.0004166044407601495 -1.3668513911808408e-5 0.0
0.00040989384646437617 -1.478131087640186e-5 0.0
0.00045108329028612057 -3.114516041477727e-5 0.0
0.0004143303013992129 -1.3977592583147874e-5 0.0
0.00042963500952226193 -2.1394838832056e-5 0.0
0.00040954038859486957 -1.6368672367601313e-5 0.0
0.0004073094266353746 -1.5195922516737945e-5 0.0
0.0004121009448524057 -1.4468235120736009e-5 0.0
0.0004047764881844385 -1.5758791483971774e-5 0.0
0.0003999185028426434 -1.638500319935915e-5 0.0
0.00039719491152770484 -1.7005244316954533e-5 0.0
0.0004096065263765863 -1.515007264312186e-5 0.0
0.0004167815304632612 -1.3799713376237864e-5 0.0
0.0004280530497198213 -1.2492844679254618e-5 0.0
0.00041439483311626256 -1.4614263363559205e-5 0.0
0.0004219201652921206 -1.312500337718378e-5 0.0
0.0004192756005257384 -1.414737137786566e-5 0.0
0.0003921571298884632 -1.7543274883842655e-5 0.0
0.00038979154198398136 -1.8125119804800114e-5 0.0
0.0004269780520669098 -1.2562917350780231e-5 0.0
0.0003839982191095702 -1.8624684099940205e-5 0.0
0.0003820624926357805 -1.918787153896042e-5 0.0
0.0004245342421875789 -1.368519990895939e-5 0.0
0.00043190178449701265 -1.216393910875422e-5 0.0
0.000375408104707361 -1.9617166091347685e-5 0.0
0.00037338811468541486 -2.018527885527954e-5 0.0
0.000429719735731635 -1.3363976637006968e-5 0.0
0.0004373476435021862 -1.176823707950614e-5 0.0
0.0003664215267935282 -2.0442492994889932e-5 0.0
0.00036434877039218946 -2.111941754951695e-5 0.0
0.00043518910428728367 -1.3149835615918838e-5 0.0
0.0004432087385457354 -1.1460847070855667e-5 0.0
0.00035684332046378824 -2.119740364451508e-5 0.0
0.0003542124207525826 -2.1882728556261955e-5 0.0
0.000441196616819657 -1.2951587736660188e-5 0.0
0.00044947090665976446 -1.1196179151637982e-5 0.0
0.00034542379393288886 -2.1804247906701505e-5 0.0
0.0003430021407364779 -2.248546586579679e-5 0.0
0.00033235244140012273 -2.2292579090734068e-5 0.0
0.00033494367015228483 -2.1722579694482676e-5 0.0
0.0004325916425399117 -1.4705844920821163e-5 0.0
0.0004474541087380091 -1.2844625699224753e-5 0.0
0.0004560950823666042 -1.099297455867237e-5 0.0
0.00045828003236162004 -9.352868747888634e-6 0.0
0.00044158548723270143 -1.4594822356715384e-5 0.0
0.00046537821303910645 -9.075871191147377e-6 0.0
0.0004676570769325736 -7.501723525083884e-6 0.0
0.0004752039200794179 -7.128444677343535e-6 0.0
0.00033084411012449433 -2.306702403693485e-5 0.0
0.000318328333479861 -2.2693722187310846e-5 0.0
0.0003413337284158667 -2.341289209784783e-5 0.0
0.00045387735019691096 -1.2857640173875017e-5 0.0
0.0003168905477892977 -2.3494629112249548e-5 0.0
0.00030320748383279967 -2.3064448104255543e-5 0.0
0.000455919526874416 -1.8657644704298273e-5 0.0
0.00030162047555358696 -2.3792736551349194e-5 0.0
0.000288027881638276 -2.3386030382155274e-5 0.0
0.0002863456582787237 -2.4161511778901343e-5 0.0
0.00027384914778874375 -2.3704910031307383e-5 0.0
0.00027519274828788137 -2.3044244802980728e-5 0.0
0.00026068951727687214 -2.3372790771043874e-5 0.0
0.000262296109494895 -2.2701810068577872e-5 0.0
0.0002705935906911394 -2.455592847852653e-5 0.0
0.0002469514606652966 -2.2952618868350436e-5 0.0
0.0002484919255032335 -2.2331544033030522e-5 0.0
0.0002847440753627045 -2.5093085388437357e-5 0.0
0.0002711742422379181 -2.5548735247183866e-5 0.0
0.00023375350979059476 -2.2414860190516722e-5 0.0
0.0002347512182678987 -2.189654788182416e-5 0.0
0.0004776602247353541 -5.71225535780955e-6 0.0
0.0004857010779993256 -5.286793083505121e-6 0.0
0.0002831503005842092 -2.6135489656553842e-5 0.0
0.00026981931381296945 -2.6560670535756636e-5 0.0
0.0004882032952053791 -3.990252474499306e-6 0.0
0.0004968018832559478 -3.5356509269191785e-6 0.0
0.0004938739548927093 -5.097425271464304e-6 0.0
0.0005053227151728718 -3.235365479717473e-6 0.0
0.0005026632590361889 -5.025219434751102e-6 0.0
0.0005144797905561915 -3.0090622943240773e-6 0.0
0.0005124572743316211 -4.90845991497665e-6 0.0
0.0005250558138332353 -2.6497859129209164e-6 0.0
0.0005220894971858935 -4.754147144707995e-6 0.0
0.0005268902766890741 -1.1630111498297732e-6 0.0
0.000535181822693954 -2.451539152926263e-6 0.0
0.0005316775204643718 -4.820704741819304e-6 0.0
0.0002817493591660142 -2.7249355241261354e-5 0.0
0.00021927976890186336 -2.1838510567861776e-5 0.0
0.00021999249689503734 -2.1360678130525223e-5 0.0
0.00051948829767598 -7.605731679768283e-6 0.0
0.0005287726210239211 -7.909469463909899e-6 0.0
0.0005411855446341519 -4.957395108985525e-6 0.0
0.0005173989483505428 -1.105341795213531e-5 0.0
0.00026876565744062404 -2.7668098282722747e-5 0.0
0.0005383632839586705 -8.396044430334522e-6 0.0
0.0005509476150051018 -5.170493074955907e-6 0.0
0.00028033128744769324 -2.8467912372894114e-5 0.0
0.0002676524961050498 -2.8872135724198408e-5 0.0