# vtk DataFile Version 2.0
phase field modeling fracture
ASCII
DATASET UNSTRUCTURED_GRID
POINTS 2538 float
0.0 0.0 0.0
10.0 0.0 0.0
0.0 10.0 0.0
10.0 10.0 0.0
0.0 4.9995 0.0
0.0 5.0005 0.0
5.0 5.0 0.0
0.9416964895726688 0.0 0.0
1.803581725054446 0.0 0.0
2.592419885431098 0.0 0.0
3.314401822861676 0.0 0.0
3.975193910351406 0.0 0.0
4.579982132660152 0.0 0.0
5.133512780936812 0.0 0.0
5.640130319506143 0.0 0.0
6.103810708661955 0.0 0.0
6.528192895506818 0.0 0.0
6.916607540127679 0.0 0.0
7.272102969376355 0.0 0.0
7.597469242948583 0.0 0.0
7.895259826292669 0.0 0.0
8.167811885738017 0.0 0.0
8.417264413845215 0.0 0.0
8.645575169389538 0.0 0.0
8.854535961159101 0.0 0.0
9.045786767735546 0.0 0.0
9.220828555767493 0.0 0.0
9.38103509633881 0.0 0.0
9.527663687265145 0.0 0.0
9.661865124984566 0.0 0.0
9.784692609918062 0.0 0.0
9.897110148790482 0.0 0.0
10.0 0.09999999999992584 0.0
10.0 0.199999999999856 0.0
10.0 0.2999999999997771 0.0
10.0 0.3999999999996677 0.0
10.0 0.4999999999995511 0.0
10.0 0.5999999999994683 0.0
10.0 0.6999999999993983 0.0
10.0 0.7999999999993286 0.0
10.0 0.8999999999992587 0.0
10.0 0.9999999999991888 0.0
10.0 1.099999999999119 0.0
10.0 1.199999999999033 0.0
10.0 1.299999999998852 0.0
10.0 1.399999999998576 0.0
10.0 1.499999999998284 0.0
10.0 1.599999999997992 0.0
10.0 1.6999999999977 0.0
10.0 1.799999999997408 0.0
10.0 1.899999999997116 0.0
10.0 1.999999999996825 0.0
10.0 2.099999999996533 0.0
10.0 2.199999999996241 0.0
10.0 2.299999999995949 0.0
10.0 2.399999999995657 0.0
10.0 2.499999999995365 0.0
10.0 2.599999999995073 0.0
10.0 2.699999999994782 0.0
10.0 2.79999999999449 0.0
10.0 2.899999999994198 0.0
10.0 2.999999999993906 0.0
10.0 3.099999999993614 0.0
10.0 3.199999999993322 0.0
10.0 3.299999999993029 0.0
10.0 3.399999999992738 0.0
10.0 3.499999999992446 0.0
10.0 3.599999999992154 0.0
10.0 3.699999999991863 0.0
10.0 3.799999999991571 0.0
10.0 3.899999999991278 0.0
10.0 3.999999999991022 0.0
10.0 4.099999999991035 0.0
10.0 4.199999999991187 0.0
10.0 4.299999999991338 0.0
10.0 4.399999999991491 0.0
10.0 4.499999999991642 0.0
10.0 4.599999999991795 0.0
10.0 4.699999999991947 0.0
10.0 4.799999999992099 0.0
10.0 4.89999999999225 0.0
10.0 4.999999999992403 0.0
10.0 5.099999999992555 0.0
10.0 5.199999999992706 0.0
10.0 5.299999999992858 0.0
10.0 5.39999999999301 0.0
10.0 5.499999999993161 0.0
10.0 5.599999999993313 0.0
10.0 5.699999999993466 0.0
10.0 5.799999999993618 0.0
10.0 5.899999999993771 0.0
10.0 5.999999999993922 0.0
10.0 6.099999999994074 0.0
10.0 6.199999999994227 0.0
10.0 6.299999999994378 0.0
10.0 6.39999999999453 0.0
10.0 6.499999999994682 0.0
10.0 6.599999999994833 0.0
10.0 6.699999999994986 0.0
10.0 6.799999999995138 0.0
10.0 6.899999999995289 0.0
10.0 6.999999999995442 0.0
10.0 7.099999999995594 0.0
10.0 7.199999999995747 0.0
10.0 7.299999999995897 0.0
10.0 7.39999999999605 0.0
10.0 7.499999999996202 0.0
10.0 7.599999999996353 0.0
10.0 7.699999999996505 0.0
10.0 7.799999999996658 0.0
10.0 7.899999999996808 0.0
10.0 7.999999999996962 0.0
10.0 8.099999999997113 0.0
10.0 8.199999999997265 0.0
10.0 8.299999999997418 0.0
10.0 8.399999999997569 0.0
10.0 8.499999999997721 0.0
10.0 8.599999999997873 0.0
10.0 8.699999999998024 0.0
10.0 8.799999999998176 0.0
10.0 8.899999999998329 0.0
10.0 8.99999999999848 0.0
10.0 9.099999999998634 0.0
10.0 9.199999999998786 0.0
10.0 9.299999999998937 0.0
10.0 9.399999999999089 0.0
10.0 9.499999999999241 0.0
10.0 9.599999999999392 0.0
10.0 9.699999999999545 0.0
10.0 9.799999999999697 0.0
10.0 9.899999999999848 0.0
9.897110148790565 10.0 0.0
9.784692609918244 10.0 0.0
9.66186512498486 10.0 0.0
9.527663687265571 10.0 0.0
9.381035096339392 10.0 0.0
9.220828555768257 10.0 0.0
9.045786767736512 10.0 0.0
8.854535961160305 10.0 0.0
8.645575169391027 10.0 0.0
8.417264413847017 10.0 0.0
8.167811885740178 10.0 0.0
7.895259826295246 10.0 0.0
7.597469242951631 10.0 0.0
7.272102969379938 10.0 0.0
6.916607540131873 10.0 0.0
6.528192895511704 10.0 0.0
6.103810708667616 10.0 0.0
5.640130319512691 10.0 0.0
5.13351278094435 10.0 0.0
4.579982132668816 10.0 0.0
3.975193910361222 10.0 0.0
3.314401822869852 10.0 0.0
2.592419885437257 10.0 0.0
1.803581725058137 10.0 0.0
0.9416964895740705 10.0 0.0
0.0 9.00010000000243 0.0
0.0 8.000200000005481 0.0
0.0 7.000300000005135 0.0
0.0 6.000400000002569 0.0
0.901790731451151 5.000409820926855 0.0
1.657200899774397 5.000334279910023 0.0
2.289991063707192 5.000271000893629 0.0
2.820065163538221 5.000217993483646 0.0
3.264096435579811 5.000173590356442 0.0
3.636051481595835 5.00013639485184 0.0
3.947629914072366 5.000105237008593 0.0
4.208632181002628 5.0000791367819 0.0
4.427267949625672 5.000057273205037 0.0
4.610414277633563 5.000038958572237 0.0
4.763831845154243 5.000023616815485 0.0
4.892346298799659 5.00001076537012 0.0
4.892346298799748 4.99998923462988 0.0
4.763831845154455 4.999976383184515 0.0
4.610414277633943 4.999961041427763 0.0
4.427267949626277 4.999942726794963 0.0
4.208632181003523 4.9999208632181 0.0
3.94762991407365 4.999894762991407 0.0
3.636051481597624 4.99986360514816 0.0
3.264096435582253 4.999826409643559 0.0
2.820065163541503 4.999782006516354 0.0
2.289991063711534 4.999728999106371 0.0
1.657200899778495 4.999665720089978 0.0
0.9017907314530094 4.999590179073145 0.0
0.0 3.999600000002013 0.0
0.0 2.999700000005187 0.0
0.0 1.99980000000512 0.0
0.0 0.9999000000025537 0.0
9.897889398521345 2.93573355845387 0.0
9.906568249974548 7.060009441434234 0.0
9.913122631074113 3.64016132281653 0.0
9.922462129543863 6.354535290629151 0.0
9.917693659967533 4.354211663134567 0.0
9.909873057440208 5.637584487339942 0.0
9.914183254994697 4.950672966925282 0.0
9.913885043715895 7.666887930262611 0.0
9.91009668007573 2.351889069770817 0.0
9.905135696074536 8.138152454502785 0.0
9.913397459621809 1.849999999997262 0.0
7.099302372137626 0.297750452375005 0.0
7.095143729410097 9.700359990366296 0.0
4.942912558701401 5.095838627899509 0.0
4.315009232304429 5.165022115481685 0.0
4.946182472483878 4.906763777264103 0.0
4.317967462990024 4.825955043772673 0.0
9.916390871492647 8.64999999999792 0.0
9.921504649680616 1.368376469890358 0.0
8.292538149791614 0.206877570318844 0.0
8.292538149793597 9.793122429681448 0.0
5.884594439766573 9.587645267048616 0.0
5.794826292691579 0.3794853783929359 0.0
9.913397459621425 9.049999999998557 0.0
9.908526577714177 0.9568239351922434 0.0
3.456851160380649 5.315740054130451 0.0
3.457889657868442 4.707121019609468 0.0
8.945214200703926 0.1503383337970344 0.0
8.950161364448409 9.8413906539257 0.0
9.913862335499305 4.055887885208452 0.0
9.916697353372683 4.650158482607802 0.0
9.919076340414442 6.049999999994006 0.0
9.906994308667635 5.25749687748192 0.0
9.917490342358025 6.655979201891897 0.0
9.915757520293784 7.343848891656911 0.0
9.910049507471042 3.363474386285078 0.0
9.914471988502868 2.647400064832979 0.0
9.91474124160965 9.337490423485129 0.0
9.916971008170838 0.6499999999994355 0.0
4.307157269264427 9.509674045029644 0.0
4.331527375865619 0.4401616696422582 0.0
9.45434939180249 9.878397030523757 0.0
9.457696120412969 0.1270877537061785 0.0
2.555070293622606 5.422044496190925 0.0
2.566232917480916 4.608001224030952 0.0
3.026511860837692 9.332320638257093 0.0
2.945561971800619 0.5895662714727601 0.0
7.7395404387124 0.2511088946967771 0.0
7.736379255744154 9.745848826372828 0.0
4.687135269408529 5.122111433928926 0.0
4.688420821504113 4.871895064967488 0.0
9.910554884115975 0.3448356354522978 0.0
9.911230082250466 9.65764729394159 0.0
9.921953841410854 6.851023993342036 0.0
9.912065178606017 5.448170483544033 0.0
9.911660025326261 3.861846960030188 0.0
9.914847467973438 3.14501593945607 0.0
9.913397459621425 5.849999999993703 0.0
9.913397459621425 7.849999999996735 0.0
9.906916878988277 2.15455769998631 0.0
9.913397459621425 8.349999999997479 0.0
9.909472363117661 1.640528221515488 0.0
9.913987325695956 1.152857110636247 0.0
9.913397459621425 8.849999999998241 0.0
0.9100099990995943 2.614215977520411 0.0
0.8395284981715456 7.451196254860987 0.0
9.723278867451556 9.898135916635193 0.0
9.723316350887044 0.09841820909386662 0.0
1.385819164827588 4.454539963646463 0.0
1.338343629665047 5.523111536005823 0.0
1.377179700550677 0.6809168304959698 0.0
1.418060461092743 9.285896715136046 0.0
9.91268220142518 0.1457914080939694 0.0
9.906737126737994 9.845745933882352 0.0
0.7108351382691361 6.537941170074089 0.0
1.527735020267026 6.915620208855231 0.0
1.630993885659103 7.838271825205868 0.0
2.232760943566823 7.370850737296832 0.0
2.243414218068206 6.688299277952821 0.0
2.779655053105118 7.021588754814074 0.0
2.80227799359795 7.632420170547022 0.0
3.282022065908813 7.305859666021318 0.0
3.327597298795347 7.857554136825748 0.0
3.743210251018715 7.549183328204379 0.0
3.716353232200752 7.062036086888612 0.0
4.111978858674101 7.27497101169417 0.0
4.104192177581432 6.879858986267289 0.0
4.436230765617037 7.045693351607117 0.0
4.430360014817357 6.703971783962796 0.0
4.732390145036301 6.849841042423394 0.0
5.056161327708878 5.095276573498806 0.0
5.111586796021131 4.999081142133581 0.0
5.169267363407189 5.09444870412406 0.0
5.223795108752053 4.996986220359468 0.0
5.281480803887719 5.092780870372803 0.0
5.335670761900611 4.994887492556936 0.0
5.393485214772442 5.090486192743301 0.0
5.447323082877892 4.992601527033996 0.0
5.505243219343024 5.087953380710069 0.0
5.558739102026105 4.990287787962959 0.0
5.616491581184779 5.085335255235766 0.0
5.669852346908056 4.9879269227514 0.0
5.727502713908907 5.082679981817038 0.0
5.780766004135139 4.988313988715834 0.0
5.838244881129535 5.080480568766611 0.0
5.891357695677371 4.986433849408193 0.0
5.948696036767613 5.077969900389505 0.0
6.001601341641615 4.981313698556656 0.0
6.058851024265095 5.074871552128682 0.0
6.111614020704875 4.978360695880202 0.0
6.168801161530775 5.072044953270978 0.0
6.221368818778567 4.975825765213497 0.0
6.278268309066882 5.066182320461055 0.0
6.330814273567539 4.972837984645718 0.0
6.387565032421376 5.062889771971895 0.0
6.437476667631405 4.971693683589553 0.0
[...]
POINT_DATA 2538
VECTORS disp float
1.3091232709556695e-11 2.4050740200750283e-11 0.0
1.11971380592228e-11 -2.622381517113461e-11 0.0
0.001999999999228516 4.518034562109986e-12 0.0
0.001999999975392979 -5.980851917869705e-11 0.0
0.0008121922220483453 0.0003510947450776422 0.0
0.0014967762191146722 5.385628637114714e-5 0.0
0.0010718615187386674 -1.0567732162689389e-5 0.0
-5.23338764010724e-13 -3.2941094028639493e-12 0.0
2.67024917438283e-12 1.6798566987742256e-12 0.0
1.777356444009039e-12 -5.429167761675754e-13 0.0
1.5808283884263857e-12 -3.403225027905366e-13 0.0
9.69302382490128e-13 -3.7976435355647493e-13 0.0
9.359883229687287e-13 -7.467786434216382e-13 0.0
7.235946662333853e-13 -8.548828519518824e-13 0.0
6.0626108597326e-13 -1.224805795623636e-12 0.0
3.757541445573014e-13 -1.5931372462070294e-12 0.0
5.799201345771784e-13 -2.1109066820364656e-12 0.0
5.683683311968606e-13 -2.588435791042853e-12 0.0
6.891489335015842e-13 -3.068585573659603e-12 0.0
8.171206893618247e-13 -3.5321181372711055e-12 0.0
8.475560461706613e-13 -3.7873020719601474e-12 0.0
1.0768842166397681e-12 -4.246806286194396e-12 0.0
1.0797733209921454e-12 -4.381789867364473e-12 0.0
1.1661750933841937e-12 -4.748057348975785e-12 0.0
1.3326827460101792e-12 -5.0122710641315316e-12 0.0
1.3292012569101967e-12 -5.241392374228445e-12 0.0
1.4386716530503201e-12 -5.571244190091143e-12 0.0
1.596729783380999e-12 -5.921996907684016e-12 0.0
1.780984435144274e-12 -6.37334631679507e-12 0.0
1.7013725820890513e-12 -6.8960919254073746e-12 0.0
2.68707795504333e-12 -8.54304615868546e-12 0.0
7.247997685925927e-13 -6.2765937723510645e-12 0.0
2.8969863719423653e-5 -2.0783287323632687e-5 0.0
5.080022273477582e-5 -3.5678937052154274e-5 0.0
7.211414760999247e-5 -4.879486578342716e-5 0.0
9.21408297637359e-5 -6.079707722244106e-5 0.0
0.0001111471917417357 -7.198993839215972e-5 0.0
0.0001295651803054958 -8.280427717607314e-5 0.0
0.00014774921587759856 -9.307716038606529e-5 0.0
0.0001654386256800715 -0.0001029985059209272 0.0
0.00018283415257115506 -0.00011269371565670787 0.0
0.00020004081242902349 -0.00012208087130315652 0.0
0.0002170045670092191 -0.00013131529476054362 0.0
0.00023391353566732396 -0.00014033690445240953 0.0
0.0002506875293962018 -0.00014913960871253481 0.0
0.0002674227989955938 -0.00015786071878426763 0.0
0.00028413220265437737 -0.00016640147384386906 0.0
0.00030067348440229074 -0.0001747001001880953 0.0
0.00031721541355576833 -0.00018286506477566063 0.0
0.00033381994910662696 -0.0001907787387960837 0.0
0.0003504217695250245 -0.00019852305054882243 0.0
0.00036706163309198375 -0.00020610969416225318 0.0
0.00038373258629808204 -0.0002135435887926441 0.0
0.0004004527629499446 -0.0002208220596983978 0.0
0.0004173265463800125 -0.0002279583151352084 0.0
0.0004341458265682152 -0.00023495332970382637 0.0
0.0004511742003795353 -0.00024179147769727514 0.0
0.0004681550301441752 -0.00024848769853695623 0.0
0.0004852668589579512 -0.0002550678325627437 0.0
0.0005024530185061268 -0.00026147163546154633 0.0
0.0005198327947141936 -0.0002677399502487411 0.0
0.0005371791962151317 -0.0002739406611707121 0.0
0.0005547213570034991 -0.00028002416213184595 0.0
0.0005723420278794227 -0.0002859784321779585 0.0
0.0005901354183410566 -0.0002918991784338928 0.0
0.0006080999730627588 -0.00029767683735634217 0.0
0.0006262882070659557 -0.0003035253875269912 0.0
0.000644426971899003 -0.00030916773342164335 0.0
0.0006627970995325773 -0.0003146815782387948 0.0
0.0006812107179343363 -0.0003198172608484751 0.0
0.0006996531981962897 -0.0003246761161389198 0.0
0.0007182212835758243 -0.00032934535897587554 0.0
0.0007367459226304165 -0.0003336346736767036 0.0
0.0007555881748423265 -0.00033771662384509424 0.0
0.0007747132294504825 -0.0003414383797959136 0.0
0.0007940276294276969 -0.00034517027050337247 0.0
0.0008137181307401569 -0.0003484982851039932 0.0
0.0008334435782267974 -0.00035170848071956073 0.0
0.0008532434800763082 -0.0003548479258855019 0.0
0.0008733125788781712 -0.000357446174549134 0.0
0.0008930480141764022 -0.0003601984059144399 0.0
0.0009132480105930689 -0.0003623965782970163 0.0
0.0009335330020489765 -0.00036459249611617387 0.0
0.0009542592836596274 -0.0003666987078386637 0.0
0.0009749805416587666 -0.0003688400385554207 0.0
0.0009964938958285994 -0.0003706650258512678 0.0
0.0010178155553769103 -0.00037249682060960744 0.0
0.0010400584735621961 -0.00037425818974599076 0.0
0.0010619444478840445 -0.00037604671308321286 0.0
0.0010839109317075165 -0.00037744528192399014 0.0
0.001105749032613212 -0.0003787131921776573 0.0
0.0011275118140296747 -0.00037952771970570107 0.0
0.0011487447273660011 -0.00038034684999071225 0.0
0.0011693913877269995 -0.00038100406937055287 0.0
0.001189559154861958 -0.00038162590336341117 0.0
0.0012089805292713276 -0.00038198769409119313 0.0
0.0012283135765376197 -0.0003822977759111252 0.0
0.001248009551841188 -0.0003822224393979757 0.0
0.0012672855232356713 -0.00038158524301113545 0.0
0.0012859756028495875 -0.00038062140134645627 0.0
0.0013043751861724646 -0.0003789419653055935 0.0
0.0013233556239382856 -0.0003774359369031837 0.0
0.0013420095636957523 -0.0003756803971279327 0.0
0.0013617457323707035 -0.0003738464618718974 0.0
0.0013804145343207911 -0.00037141428607025974 0.0
0.0013989993840195795 -0.00036829291513247326 0.0
0.001418897876231706 -0.0003642702901106851 0.0
0.001438178335620436 -0.0003595095053648659 0.0
0.001458411620450011 -0.0003545336190122249 0.0
0.0014778349208097684 -0.000348960266450662 0.0
0.0014976493412007848 -0.00034259183781772687 0.0
0.0015170564467623317 -0.00033516132820193893 0.0
0.0015377597148157167 -0.00032745906425462007 0.0
0.0015570026921347532 -0.0003188658608960775 0.0
0.0015768639102117206 -0.0003099253490878594 0.0
0.0015975615734878466 -0.00030001950502725683 0.0
0.0016178140400633372 -0.000289797908575795 0.0
0.0016381229734759141 -0.00027932736215423635 0.0
0.0016590183025578836 -0.0002678435837657525 0.0
0.0016797271922190662 -0.0002555401842103952 0.0
0.0017004465679883525 -0.00024254491798868206 0.0
0.0017218339095076277 -0.00022863475717547523 0.0
0.0017440689344823683 -0.00021355027657748627 0.0
0.001766864578919052 -0.00019749003495486903 0.0
0.0017902115691087197 -0.00018062352688116333 0.0
0.001814529078376219 -0.00016267403908995086 0.0
0.001840301954434342 -0.00014333077611003493 0.0
0.0018671847899210188 -0.00012245271262065283 0.0
0.00189547623251478 -9.954720997706365e-5 0.0
0.0019265311274875223 -7.342774225610235e-5 0.0
0.001959358539832276 -4.29037080543324e-5 0.0
0.0019999999983534565 -7.616510692804851e-12 0.0
0.001999999995028751 -1.030880753454947e-11 0.0
0.0019999999979493123 -3.648536273694137e-12 0.0
0.0019999999973747164 -3.1781319097085193e-12 0.0
0.001999999997814889 -1.9125492236140632e-12 0.0
0.0019999999978171173 -1.1832891906207162e-12 0.0
0.001999999997818016 -7.30441825049434e-13 0.0
0.001999999997938713 -4.1589536157562483e-13 0.0
0.001999999997935043 -1.2585435184018896e-13 0.0
0.00199999999802505 5.23779385966923e-14 0.0
0.0019999999980886466 1.8948210318097138e-13 0.0
0.0019999999982165807 3.634193752769777e-13 0.0
0.00199999999824468 5.295525375494945e-13 0.0
0.001999999998306437 7.524253077890604e-13 0.0
0.0019999999983288594 9.877995779389445e-13 0.0
0.0019999999983432346 1.2709556626948982e-12 0.0
0.001999999998354725 1.5498083035429118e-12 0.0
0.001999999998269873 1.9038839489995073e-12 0.0
0.001999999998418621 2.1516780250523786e-12 0.0
0.0019999999982904153 2.453916484575815e-12 0.0
0.0019999999983876526 2.613855864091879e-12 0.0
0.001999999998369153 2.605935196239852e-12 0.0
0.0019999999985960953 2.4726399340315794e-12 0.0
0.0019999999990620537 2.6871776091676784e-12 0.0
0.0019999999994763738 1.813956451968216e-12 0.0
0.001870557100629033 4.500194110918187e-5 0.0
0.001753352546968658 6.48695347160755e-5 0.0
0.0016477892323961687 6.473614759101883e-5 0.0
0.0015515620486809204 5.851187076267158e-5 0.0
0.0014948587693153004 -1.349765465788158e-5 0.0
0.001490891729627816 -5.3673461401146374e-5 0.0
0.0014841442914366257 -9.248244571080907e-5 0.0
0.001466493869735656 -0.00011532711572338127 0.0
0.0014387320177544798 -0.0001241314759091311 0.0
0.0014049884241458352 -0.00012282885728172308 0.0
0.0013676179335453847 -0.0001152016230868019 0.0
0.0013290025295385815 -0.00010135858794747298 0.0
0.0012886933600052798 -8.530189392978493e-5 0.0
0.00124704379625274 -6.825962338160896e-5 0.0
0.00120134145975694 -5.036110163400327e-5 0.0
0.001147035718430535 -3.213098603303005e-5 0.0
0.001022624607492737 3.192087315835128e-5 0.0
0.0009867086756691508 5.4628878187087346e-5 0.0
0.0009561776577744694 7.203152052121814e-5 0.0
0.0009288209215147635 8.806421316084359e-5 0.0
0.0009033070019646922 0.0001035839082378643 0.0
0.0008800052772194907 0.00011920429157297797 0.0
0.0008584764625984796 0.0001357621634628824 0.0
0.0008395758037706498 0.00015249127176880103 0.0
0.000825086334829242 0.00017378637065678182 0.0
0.0008132924851235703 0.00019210664763386922 0.0
0.0008132712600848461 0.00022878236857704244 0.0
0.0008086548850597337 0.0002709331825033088 0.0
0.0007321329866195765 0.0003630884254800425 0.0
0.000629907752450371 0.0003608613617251495 0.0
0.0004816891574975947 0.00031122224249420164 0.0
0.0002778926230021587 0.00020577597877463537 0.0
0.000522150717008342 -0.0002595674409015789 0.0
0.001336214324857186 -0.0003567339283784397 0.0
0.0006489555570165454 -0.0003007218126521788 0.0
0.0012002283553990381 -0.00036944144692612813 0.0
0.0007834440645463625 -0.00033215286468671123 0.0
0.0010472127226696212 -0.00036187592969892126 0.0
0.0009023658954182268 -0.00034901347472247754 0.0
0.0014551033698098164 -0.00033171123129317374 0.0
0.00042223143457481127 -0.0002225506710003857 0.0
0.0015505689633398595 -0.00029391994975361594 0.0
0.0003380808466637692 -0.0001859282276531347 0.0
3.225888963628028e-5 -8.123423535917999e-6 0.0
0.0019571330687003854 -3.425009416818803e-7 0.0
0.0011402693564938073 -5.625441760707182e-6 0.0
0.0012942163274469835 -7.648810592187648e-5 0.0
0.0009919685858177409 2.4247153214167292e-5 0.0
0.0008895435500937565 0.00010549758108760053 0.0
0.0016545120365170527 -0.0002468787403433966 0.0
0.00025805377062392026 -0.0001472180148557733 0.0
2.7204545533128713e-5 -8.693979396918556e-6 0.0
0.001968737335744079 -2.3368362250570636e-6 0.0
0.001940329261901473 3.7969691372674832e-6 0.0
3.828656877792628e-5 -2.5210078020516303e-6 0.0
0.00174084142258038 -0.00019337081021858805 0.0
0.00018758938469473307 -0.00010852215068300241 0.0
0.001402996396492051 -0.00010306767381123979 0.0
0.0008136509845974864 0.00015172605023214622 0.0
2.1963888752413802e-5 -7.453957164555584e-6 0.0
0.001975273941266617 -2.9232769257571184e-6 0.0
0.0007264901675683462 -0.00032015594767757663 0.0
0.0008419865484568166 -0.0003416979810693607 0.0
0.001137900124325885 -0.0003677173701006733 0.0
0.000964989267261247 -0.00035452503697045454 0.0
0.0012594145274111273 -0.00036714449827149765 0.0
0.0013908067671943003 -0.00034904712144142577 0.0
0.0005984134755573213 -0.00028583493240881607 0.0
0.00047281437620305585 -0.00024295710369444365 0.0
0.0018080145502860582 -0.00014695713532130047 0.0
0.0001337825768063069 -7.864571872971038e-5 0.0
0.0019266248717830997 8.368053952367398e-6 0.0
5.460638597734334e-5 3.5108447036434668e-6 0.0
0.001980272734273508 -5.022700556264993e-6 0.0
2.083369680360987e-5 -7.749470288383038e-6 0.0
0.001472907640383443 -9.155394800024323e-5 0.0
0.0007800202731215549 0.00018615498711742887 0.0
0.0019027370954590836 9.66433385318127e-6 0.0
8.865433192892835e-5 8.995556019918997e-6 0.0
3.0318270106392978e-5 -9.072125541914752e-6 0.0
0.001962796913358201 -1.7741160667426414e-6 0.0
0.0012175632484902337 -4.3204561276892546e-5 0.0
0.0009425900739086488 7.207202624085969e-5 0.0
7.530214162106093e-5 -4.328971909827327e-5 0.0
0.0018940193086735351 -8.209802495972862e-5 0.0
0.0012968118551708143 -0.00036509679425248613 0.0
0.0010057495264325787 -0.00035902450895379534 0.0
0.0006901494683917302 -0.0003112869515337546 0.0
0.0005595649093752292 -0.00027389991932322375 0.0
0.0010942425690689845 -0.0003652094576039166 0.0
0.0014918155190393478 -0.00031979835492830283 0.0
0.00038875063421528255 -0.0002081665300764327 0.0
0.001592598395918496 -0.00027695201087775406 0.0
0.00030292697399075786 -0.00016890426392774445 0.0
0.000221350769883588 -0.00012735105419929332 0.0
0.0016970330406487885 -0.0002215654021016784 0.0
0.0005404861798432184 0.00019438743279084374 0.0
0.0016818725807685331 1.4996839811954257e-5 0.0
0.0019798546105893474 -9.501944210940098e-6 0.0
1.780704470397568e-5 -7.4263048949050646e-6 0.0
0.000768211610497777 0.00024478221388069845 0.0
0.0015101554023533234 -3.3911966926737904e-5 0.0
0.00011669133403810863 1.8172555455109833e-5 0.0
0.0019126859773556644 9.275112982141865e-6 0.0
3.308658494170324e-5 -1.7935360902397187e-5 0.0
0.0019534237866111197 -3.487639397144642e-5 0.0
0.001594094838829048 6.49594303932834e-6 0.0
0.001605890665994434 -1.3293412525921632e-5 0.0
0.001714090789358634 2.187700316877916e-6 0.0
0.0016364529731092183 -9.013184470257164e-6 0.0
0.0015527875631239666 -3.1096414678965376e-5 0.0
0.0015679243750843736 -1.553276813941328e-5 0.0
0.0016525088029591252 1.5569735840344484e-6 0.0
0.0015874449552775 1.9635752950531615e-6 0.0
0.0016718684616056434 1.2589332738646051e-5 0.0
0.0016116275715612554 1.6227624033767185e-5 0.0
0.0015335326390439356 6.199684838474581e-6 0.0
0.001556216732801399 2.0592281707257702e-5 0.0
0.0014893517839816462 1.3550030999296338e-5 0.0
0.0015086661129338167 2.4618316735990717e-5 0.0
0.0014490192964486906 2.0315568369672224e-5 0.0
0.0014677541208854424 2.7910382584959205e-5 0.0
0.001117497328141288 -1.5239563821560313e-5 0.0
0.00105932872340443 -2.698802223764483e-5 0.0
0.0010973864815533277 -2.4994270020259e-5 0.0
0.0010479877006517938 -3.610791233356602e-5 0.0
0.00108243807908543 -3.4429540119331346e-5 0.0
0.0010389181965555956 -4.3682184668439075e-5 0.0
0.001069961354539057 -4.1473238857347476e-5 0.0
0.0010302289203359461 -4.9729420247211506e-5 0.0
0.0010588870983841263 -4.717272583601065e-5 0.0
0.001021979418583907 -5.482600956863763e-5 0.0
0.0010489446232193615 -5.193716728685671e-5 0.0
0.0010142530079638864 -5.913327524870158e-5 0.0
0.0010399936967617298 -5.64920932809606e-5 0.0
0.0010078740687645585 -6.291997917361513e-5 0.0
0.0010317924225530107 -6.0272870559695724e-5 0.0
0.0010010005448793018 -6.648841825745047e-5 0.0
0.0010240203065925131 -6.389412516892174e-5 0.0
0.0009935591915901298 -7.000523369344263e-5 0.0
0.001016662032042044 -6.749850231865238e-5 0.0
0.000987215783693177 -7.323656230514379e-5 0.0
0.0010099214113877613 -7.09860298592291e-5 0.0
0.0009812761805617848 -7.648857716616167e-5 0.0
0.0010027398604733858 -7.448638991540967e-5 0.0
0.0009753441618158686 -7.988159886967926e-5 0.0
0.0009964961220841617 -7.812138853578734e-5 0.0
0.0009702272509968377 -8.331235734894466e-5 0.0
0.000990610443358811 -8.189307207232333e-5 0.0
0.0009638449438232495 -8.701761262332705e-5 0.0
0.0009846691072612974 -8.592851132772897e-5 0.0
0.000952705012388872 -9.179638612074643e-5 0.0
0.0009804899237370885 -9.005638648053985e-5 0.0
0.0009530721092573969 -9.537398963697196e-5 0.0
0.0009751512946974513 -9.452537739648092e-5 0.0
0.000949070793567763 -9.978897206003933e-5 0.0
0.0009703544952112036 -9.929095877635882e-5 0.0
0.0009459844261871196 -0.00010429329094488059 0.0
0.0009656558284317704 -0.00010424485161894825 0.0
0.0009419059002908371 -0.00010925120990583811 0.0
0.0009946310941591184 -5.520580837578725e-5 0.0
0.0009610973941709221 -0.00010948882482296424 0.0
0.0009639644410598144 -7.500277844008295e-5 0.0
0.0009265741385683665 -9.776630719929268e-5 0.0
0.0009362760288522781 -0.0001146163671342581 0.0
0.0009565542881157961 -0.00011504237691152505 0.0
0.000930781760504273 -0.00012039800782149085 0.0
0.0009111414873253172 -0.00011931640072041618 0.0
0.0009050911313039112 -0.0001252731873948555 0.0
0.0009511140175698018 -0.00012123952155632548 0.0
0.0009773033990839988 -0.00011554016585925651 0.0
0.0010004298030447836 -8.907268576234744e-5 0.0
0.0009720022187851097 -0.00012209056900697684 0.0
0.001000003581546615 -0.00011551969809069806 0.0
0.000993660000459346 -0.00012298640803426662 0.0
0.0008857021088890923 -0.0001239182952974572 0.0
0.0008807780141862112 -0.00012953811420077994 0.0
0.0010226577880094894 -0.00011588658226755985 0.0
0.0008600401261863673 -0.00012800516215246465 0.0
0.0008565482020310065 -0.00013365907701639256 0.0
0.0010168307864645417 -0.0001236314062403789 0.0
0.001044849649207881 -0.0001168880840248327 0.0
0.0008342993923644808 -0.00013187398641209173 0.0
0.0008303541907966677 -0.00013757730354791443 0.0
0.0010397299161539622 -0.00012477091876504515 0.0
0.001068642094028984 -0.00011763973370321837 0.0
0.0008087437703085523 -0.00013542616007757512 0.0
0.0008045992604519068 -0.00014137200228354847 0.0
0.0010633711351396961 -0.0001261575986121582 0.0
0.0010932703165180955 -0.00011843878152991478 0.0
0.0007835232111099136 -0.00013844353755660999 0.0
0.0007778887807125384 -0.00014448314287119024 0.0
0.0010883250277116674 -0.00012736474954852772 0.0
0.0011185549540198053 -0.000119269539227957 0.0
0.0007559351338263296 -0.0001412278970279257 0.0
0.0007510267235189478 -0.00014740903136561837 0.0
0.0007274158934979997 -0.00014402834240110786 0.0
0.0007324862031723572 -0.0001377207531742553 0.0
0.0010561545069054923 -0.00013477868648347348 0.0
0.001113434381568775 -0.0001288182807062514 0.0
0.0011444861288042196 -0.0001202014588380365 0.0
0.0011503363743699195 -0.00011019230602750651 0.0
0.001029242109679353 -6.905765243179765e-5 0.0
0.0011775721696605753 -0.00011078336655733379 0.0
0.001183924559891188 -0.00010029142257480884 0.0
0.0012123373809804206 -0.0001004070567115748 0.0
0.0007247129365580496 -0.000150539963399076 0.0
0.0007000258081952668 -0.0001462572727626299 0.0
0.0007479931583212573 -0.00015415821277194928 0.0
0.0011384429057284412 -0.00013058521495442336 0.0
0.0006978433818465644 -0.00015286378322039475 0.0
0.0006727184401579053 -0.0001479899915884604 0.0
0.001063648874060679 -5.2838645271163546e-5 0.0
0.0006707924855677743 -0.0001543114306095069 0.0
0.0006454838316052702 -0.00014909053805992306 0.0
0.0006438759184534437 -0.0001554683599822075 0.0
0.0006188507368873276 -0.00014951910059669713 0.0
0.0006198472864239826 -0.00014346936684069524 0.0
0.0005912615272579519 -0.00014375148651158792 0.0
0.0005926789209520916 -0.00013743736568451478 0.0
0.0006143616848963518 -0.00015565606062352882 0.0
0.0005616990367935792 -0.00013732933920421083 0.0
0.0005628141557373614 -0.00013096480073220395 0.0
0.0006427064351655044 -0.00016233578049031162 0.0
0.0006176448119581713 -0.00016311911176801667 0.0
0.0005323937994565146 -0.00013000004459973551 0.0
0.0005321650337295463 -0.00012366054256671515 0.0
0.001219601709316418 -8.975515896033776e-5 0.0
0.0012494315845188021 -8.961070829685712e-5 0.0
0.0006417349429051072 -0.00016946482767317251 0.0
0.0006172299938252894 -0.00017010054806463213 0.0
0.0012571025657320703 -7.868096941276707e-5 0.0
0.0012885864525630309 -7.851935335511054e-5 0.0
0.001279275602456743 -9.081792090511088e-5 0.0
0.0013191097829945413 -7.912441327088626e-5 0.0
0.0013104062402966544 -9.190747357287707e-5 0.0
0.0013508211127963618 -7.93366329833739e-5 0.0
0.001344112661655342 -9.215089456644012e-5 0.0
0.0013864070098474539 -7.833542765905064e-5 0.0
0.0013764756393422571 -9.181710339158446e-5 0.0
0.0013925744067512138 -6.646364604458998e-5 0.0
0.0014193926558973028 -7.832477861278623e-5 0.0
0.0014076231548217682 -9.218500628641518e-5 0.0
0.0006413158566157127 -0.00017687216612767795 0.0
0.0004998161827796154 -0.00012205132152973246 0.0
0.0004986109213557707 -0.00011532309455786424 0.0
0.0013675946048937583 -0.00010640787027520348 0.0
0.001397668504845324 -0.00010692946067187964 0.0
0.001437402940914509 -9.26221854660735e-5 0.0
0.0013600021807589357 -0.00012188036596115395 0.0
0.000617593402310457 -0.00017745767304599665 0.0
0.0014277067844425785 -0.0001075810125444915 0.0
0.0014668107580520747 -9.300551024286929e-5 0.0