# vtk DataFile Version 2.0
phase field modeling fracture
ASCII
DATASET UNSTRUCTURED_GRID
POINTS 2538 float
0.0 0.0 0.0
10.0 0.0 0.0
0.0 10.0 0.0
10.0 10.0 0.0
0.0 4.9995 0.0
0.0 5.0005 0.0
5.0 5.0 0.0
0.9416964895726688 0.0 0.0
1.803581725054446 0.0 0.0
2.592419885431098 0.0 0.0
3.314401822861676 0.0 0.0
3.975193910351406 0.0 0.0
4.579982132660152 0.0 0.0
5.133512780936812 0.0 0.0
5.640130319506143 0.0 0.0
6.103810708661955 0.0 0.0
6.528192895506818 0.0 0.0
6.916607540127679 0.0 0.0
7.272102969376355 0.0 0.0
7.597469242948583 0.0 0.0
7.895259826292669 0.0 0.0
8.167811885738017 0.0 0.0
8.417264413845215 0.0 0.0
8.645575169389538 0.0 0.0
8.854535961159101 0.0 0.0
9.045786767735546 0.0 0.0
9.220828555767493 0.0 0.0
9.38103509633881 0.0 0.0
9.527663687265145 0.0 0.0
9.661865124984566 0.0 0.0
9.784692609918062 0.0 0.0
9.897110148790482 0.0 0.0
10.0 0.09999999999992584 0.0
10.0 0.199999999999856 0.0
10.0 0.2999999999997771 0.0
10.0 0.3999999999996677 0.0
10.0 0.4999999999995511 0.0
10.0 0.5999999999994683 0.0
10.0 0.6999999999993983 0.0
10.0 0.7999999999993286 0.0
10.0 0.8999999999992587 0.0
10.0 0.9999999999991888 0.0
10.0 1.099999999999119 0.0
10.0 1.199999999999033 0.0
10.0 1.299999999998852 0.0
10.0 1.399999999998576 0.0
10.0 1.499999999998284 0.0
10.0 1.599999999997992 0.0
10.0 1.6999999999977 0.0
10.0 1.799999999997408 0.0
10.0 1.899999999997116 0.0
10.0 1.999999999996825 0.0
10.0 2.099999999996533 0.0
10.0 2.199999999996241 0.0
10.0 2.299999999995949 0.0
10.0 2.399999999995657 0.0
10.0 2.499999999995365 0.0
10.0 2.599999999995073 0.0
10.0 2.699999999994782 0.0
10.0 2.79999999999449 0.0
10.0 2.899999999994198 0.0
10.0 2.999999999993906 0.0
10.0 3.099999999993614 0.0
10.0 3.199999999993322 0.0
10.0 3.299999999993029 0.0
10.0 3.399999999992738 0.0
10.0 3.499999999992446 0.0
10.0 3.599999999992154 0.0
10.0 3.699999999991863 0.0
10.0 3.799999999991571 0.0
10.0 3.899999999991278 0.0
10.0 3.999999999991022 0.0
10.0 4.099999999991035 0.0
10.0 4.199999999991187 0.0
10.0 4.299999999991338 0.0
10.0 4.399999999991491 0.0
10.0 4.499999999991642 0.0
10.0 4.599999999991795 0.0
10.0 4.699999999991947 0.0
10.0 4.799999999992099 0.0
10.0 4.89999999999225 0.0
10.0 4.999999999992403 0.0
10.0 5.099999999992555 0.0
10.0 5.199999999992706 0.0
10.0 5.299999999992858 0.0
10.0 5.39999999999301 0.0
10.0 5.499999999993161 0.0
10.0 5.599999999993313 0.0
10.0 5.699999999993466 0.0
10.0 5.799999999993618 0.0
10.0 5.899999999993771 0.0
10.0 5.999999999993922 0.0
10.0 6.099999999994074 0.0
10.0 6.199999999994227 0.0
10.0 6.299999999994378 0.0
10.0 6.39999999999453 0.0
10.0 6.499999999994682 0.0
10.0 6.599999999994833 0.0
10.0 6.699999999994986 0.0
10.0 6.799999999995138 0.0
10.0 6.899999999995289 0.0
10.0 6.999999999995442 0.0
10.0 7.099999999995594 0.0
10.0 7.199999999995747 0.0
10.0 7.299999999995897 0.0
10.0 7.39999999999605 0.0
10.0 7.499999999996202 0.0
10.0 7.599999999996353 0.0
10.0 7.699999999996505 0.0
10.0 7.799999999996658 0.0
10.0 7.899999999996808 0.0
10.0 7.999999999996962 0.0
10.0 8.099999999997113 0.0
10.0 8.199999999997265 0.0
10.0 8.299999999997418 0.0
10.0 8.399999999997569 0.0
10.0 8.499999999997721 0.0
10.0 8.599999999997873 0.0
10.0 8.699999999998024 0.0
10.0 8.799999999998176 0.0
10.0 8.899999999998329 0.0
10.0 8.99999999999848 0.0
10.0 9.099999999998634 0.0
10.0 9.199999999998786 0.0
10.0 9.299999999998937 0.0
10.0 9.399999999999089 0.0
10.0 9.499999999999241 0.0
10.0 9.599999999999392 0.0
10.0 9.699999999999545 0.0
10.0 9.799999999999697 0.0
10.0 9.899999999999848 0.0
9.897110148790565 10.0 0.0
9.784692609918244 10.0 0.0
9.66186512498486 10.0 0.0
9.527663687265571 10.0 0.0
9.381035096339392 10.0 0.0
9.220828555768257 10.0 0.0
9.045786767736512 10.0 0.0
8.854535961160305 10.0 0.0
8.645575169391027 10.0 0.0
8.417264413847017 10.0 0.0
8.167811885740178 10.0 0.0
7.895259826295246 10.0 0.0
7.597469242951631 10.0 0.0
7.272102969379938 10.0 0.0
6.916607540131873 10.0 0.0
6.528192895511704 10.0 0.0
6.103810708667616 10.0 0.0
5.640130319512691 10.0 0.0
5.13351278094435 10.0 0.0
4.579982132668816 10.0 0.0
3.975193910361222 10.0 0.0
3.314401822869852 10.0 0.0
2.592419885437257 10.0 0.0
1.803581725058137 10.0 0.0
0.9416964895740705 10.0 0.0
0.0 9.00010000000243 0.0
0.0 8.000200000005481 0.0
0.0 7.000300000005135 0.0
0.0 6.000400000002569 0.0
0.901790731451151 5.000409820926855 0.0
1.657200899774397 5.000334279910023 0.0
2.289991063707192 5.000271000893629 0.0
2.820065163538221 5.000217993483646 0.0
3.264096435579811 5.000173590356442 0.0
3.636051481595835 5.00013639485184 0.0
3.947629914072366 5.000105237008593 0.0
4.208632181002628 5.0000791367819 0.0
4.427267949625672 5.000057273205037 0.0
4.610414277633563 5.000038958572237 0.0
4.763831845154243 5.000023616815485 0.0
4.892346298799659 5.00001076537012 0.0
4.892346298799748 4.99998923462988 0.0
4.763831845154455 4.999976383184515 0.0
4.610414277633943 4.999961041427763 0.0
4.427267949626277 4.999942726794963 0.0
4.208632181003523 4.9999208632181 0.0
3.94762991407365 4.999894762991407 0.0
3.636051481597624 4.99986360514816 0.0
3.264096435582253 4.999826409643559 0.0
2.820065163541503 4.999782006516354 0.0
2.289991063711534 4.999728999106371 0.0
1.657200899778495 4.999665720089978 0.0
0.9017907314530094 4.999590179073145 0.0
0.0 3.999600000002013 0.0
0.0 2.999700000005187 0.0
0.0 1.99980000000512 0.0
0.0 0.9999000000025537 0.0
9.897889398521345 2.93573355845387 0.0
9.906568249974548 7.060009441434234 0.0
9.913122631074113 3.64016132281653 0.0
9.922462129543863 6.354535290629151 0.0
9.917693659967533 4.354211663134567 0.0
9.909873057440208 5.637584487339942 0.0
9.914183254994697 4.950672966925282 0.0
9.913885043715895 7.666887930262611 0.0
9.91009668007573 2.351889069770817 0.0
9.905135696074536 8.138152454502785 0.0
9.913397459621809 1.849999999997262 0.0
7.099302372137626 0.297750452375005 0.0
7.095143729410097 9.700359990366296 0.0
4.942912558701401 5.095838627899509 0.0
4.315009232304429 5.165022115481685 0.0
4.946182472483878 4.906763777264103 0.0
4.317967462990024 4.825955043772673 0.0
9.916390871492647 8.64999999999792 0.0
9.921504649680616 1.368376469890358 0.0
8.292538149791614 0.206877570318844 0.0
8.292538149793597 9.793122429681448 0.0
5.884594439766573 9.587645267048616 0.0
5.794826292691579 0.3794853783929359 0.0
9.913397459621425 9.049999999998557 0.0
9.908526577714177 0.9568239351922434 0.0
3.456851160380649 5.315740054130451 0.0
3.457889657868442 4.707121019609468 0.0
8.945214200703926 0.1503383337970344 0.0
8.950161364448409 9.8413906539257 0.0
9.913862335499305 4.055887885208452 0.0
9.916697353372683 4.650158482607802 0.0
9.919076340414442 6.049999999994006 0.0
9.906994308667635 5.25749687748192 0.0
9.917490342358025 6.655979201891897 0.0
9.915757520293784 7.343848891656911 0.0
9.910049507471042 3.363474386285078 0.0
9.914471988502868 2.647400064832979 0.0
9.91474124160965 9.337490423485129 0.0
9.916971008170838 0.6499999999994355 0.0
4.307157269264427 9.509674045029644 0.0
4.331527375865619 0.4401616696422582 0.0
9.45434939180249 9.878397030523757 0.0
9.457696120412969 0.1270877537061785 0.0
2.555070293622606 5.422044496190925 0.0
2.566232917480916 4.608001224030952 0.0
3.026511860837692 9.332320638257093 0.0
2.945561971800619 0.5895662714727601 0.0
7.7395404387124 0.2511088946967771 0.0
7.736379255744154 9.745848826372828 0.0
4.687135269408529 5.122111433928926 0.0
4.688420821504113 4.871895064967488 0.0
9.910554884115975 0.3448356354522978 0.0
9.911230082250466 9.65764729394159 0.0
9.921953841410854 6.851023993342036 0.0
9.912065178606017 5.448170483544033 0.0
9.911660025326261 3.861846960030188 0.0
9.914847467973438 3.14501593945607 0.0
9.913397459621425 5.849999999993703 0.0
9.913397459621425 7.849999999996735 0.0
9.906916878988277 2.15455769998631 0.0
9.913397459621425 8.349999999997479 0.0
9.909472363117661 1.640528221515488 0.0
9.913987325695956 1.152857110636247 0.0
9.913397459621425 8.849999999998241 0.0
0.9100099990995943 2.614215977520411 0.0
0.8395284981715456 7.451196254860987 0.0
9.723278867451556 9.898135916635193 0.0
9.723316350887044 0.09841820909386662 0.0
1.385819164827588 4.454539963646463 0.0
1.338343629665047 5.523111536005823 0.0
1.377179700550677 0.6809168304959698 0.0
1.418060461092743 9.285896715136046 0.0
9.91268220142518 0.1457914080939694 0.0
9.906737126737994 9.845745933882352 0.0
0.7108351382691361 6.537941170074089 0.0
1.527735020267026 6.915620208855231 0.0
1.630993885659103 7.838271825205868 0.0
2.232760943566823 7.370850737296832 0.0
2.243414218068206 6.688299277952821 0.0
2.779655053105118 7.021588754814074 0.0
2.80227799359795 7.632420170547022 0.0
3.282022065908813 7.305859666021318 0.0
3.327597298795347 7.857554136825748 0.0
3.743210251018715 7.549183328204379 0.0
3.716353232200752 7.062036086888612 0.0
4.111978858674101 7.27497101169417 0.0
4.104192177581432 6.879858986267289 0.0
4.436230765617037 7.045693351607117 0.0
4.430360014817357 6.703971783962796 0.0
4.732390145036301 6.849841042423394 0.0
5.056161327708878 5.095276573498806 0.0
5.111586796021131 4.999081142133581 0.0
5.169267363407189 5.09444870412406 0.0
5.223795108752053 4.996986220359468 0.0
5.281480803887719 5.092780870372803 0.0
5.335670761900611 4.994887492556936 0.0
5.393485214772442 5.090486192743301 0.0
5.447323082877892 4.992601527033996 0.0
5.505243219343024 5.087953380710069 0.0
5.558739102026105 4.990287787962959 0.0
5.616491581184779 5.085335255235766 0.0
5.669852346908056 4.9879269227514 0.0
5.727502713908907 5.082679981817038 0.0
5.780766004135139 4.988313988715834 0.0
5.838244881129535 5.080480568766611 0.0
5.891357695677371 4.986433849408193 0.0
5.948696036767613 5.077969900389505 0.0
6.001601341641615 4.981313698556656 0.0
6.058851024265095 5.074871552128682 0.0
6.111614020704875 4.978360695880202 0.0
6.168801161530775 5.072044953270978 0.0
6.221368818778567 4.975825765213497 0.0
6.278268309066882 5.066182320461055 0.0
6.330814273567539 4.972837984645718 0.0
6.387565032421376 5.062889771971895 0.0
6.437476667631405 4.971693683589553 0.0
[...]
POINT_DATA 2538
VECTORS disp float
1.320899649056948e-11 2.633508335083614e-11 0.0
1.617212620456743e-11 -3.8961823211971636e-11 0.0
0.002299999998309607 6.531581495380673e-12 0.0
0.002299999973938352 -6.600671175107681e-11 0.0
0.0008865299492563352 0.0003625469989973956 0.0
0.0016929326053613488 6.643451789966702e-5 0.0
0.0011877970244255575 1.6230946149846633e-5 0.0
3.3382130211610706e-13 -2.668275502872715e-12 0.0
3.4573130334992724e-12 2.5100686997588886e-12 0.0
2.5076205019696217e-12 9.60774939078962e-14 0.0
2.177984305289658e-12 2.0438050121017455e-13 0.0
1.5177539313179804e-12 6.044195344247136e-15 0.0
1.383902671129687e-12 -4.047238466431329e-13 0.0
1.1182708187242561e-12 -5.815958402744171e-13 0.0
9.548382112957474e-13 -9.977294641448807e-13 0.0
6.653569689496153e-13 -1.4344978301018088e-12 0.0
8.820530438002171e-13 -2.0197428970389516e-12 0.0
8.674238607485527e-13 -2.6212630065157976e-12 0.0
1.0048138017183631e-12 -3.2496867320778523e-12 0.0
1.1661863289227736e-12 -3.8681228976660274e-12 0.0
1.2217201256600306e-12 -4.282877555423465e-12 0.0
1.4899900463626058e-12 -4.903053420449896e-12 0.0
1.5209091303034246e-12 -5.191382469781668e-12 0.0
1.6531633783743647e-12 -5.720342153773726e-12 0.0
1.842098302695027e-12 -6.168834286476724e-12 0.0
1.8836445306871656e-12 -6.579051413942622e-12 0.0
2.0402787115605538e-12 -7.1175349635908706e-12 0.0
2.25554748619673e-12 -7.708397208878085e-12 0.0
2.5446622732040304e-12 -8.48786352496332e-12 0.0
2.4920739817665004e-12 -9.316009672262154e-12 0.0
3.863238925908827e-12 -1.200047744267743e-11 0.0
1.334463137141163e-12 -8.979735025451686e-12 0.0
3.2547030003815864e-5 -2.8306718895064466e-5 0.0
5.694494319526828e-5 -4.798558412858597e-5 0.0
8.052012506701466e-5 -6.518470852698742e-5 0.0
0.00010263093088132249 -8.076571848632183e-5 0.0
0.00012366818865620373 -9.523626687508264e-5 0.0
0.00014407513165745682 -0.0001091186748488699 0.0
0.00016422329844477837 -0.00012231454108036166 0.0
0.0001838780651226713 -0.00013501619905721224 0.0
0.00020326342119034735 -0.00014737120547496886 0.0
0.00022247946766012263 -0.00015931841174930686 0.0
0.0002414942096230985 -0.00017101615025404547 0.0
0.000260524442795227 -0.0001824129575770955 0.0
0.0002794573065214865 -0.00019350952752584779 0.0
0.00029836952972554375 -0.0002044391580066428 0.0
0.000317351633557321 -0.000215100084259696 0.0
0.0003362505809537676 -0.00022548135616534513 0.0
0.00035521948658717554 -0.00023568739796161938 0.0
0.0003743005227838202 -0.0002456088602566787 0.0
0.0003934463226136592 -0.00025533167032993774 0.0
0.0004126892007192813 -0.0002648594107487279 0.0
0.0004320311332939465 -0.00027418941887958736 0.0
0.0004514759986709516 -0.00028331734599664615 0.0
0.00047114044590821963 -0.0002922662703567101 0.0
0.0004908141439248198 -0.000301016698120619 0.0
0.0005107704431904019 -0.00030957474531184226 0.0
0.000530723508606318 -0.0003179264747058733 0.0
0.0005508889064464402 -0.0003261072093550823 0.0
0.0005711859847376737 -0.0003340624423066033 0.0
0.0005917291202930843 -0.0003418337633186 0.0
0.0006122946544566248 -0.0003494418935311794 0.0
0.0006331328274145839 -0.0003568663889525773 0.0
0.0006541230432242096 -0.00036408949524627276 0.0
0.0006753406538196222 -0.00037120140432749405 0.0
0.0006967519342192956 -0.0003781846795817201 0.0
0.0007184001379877204 -0.00038513303332673207 0.0
0.0007400573803703381 -0.0003919064796760754 0.0
0.0007620495469414605 -0.00039852833459222897 0.0
0.0007840295736573737 -0.0004048141527157678 0.0
0.0008060782237013993 -0.0004107886730382713 0.0
0.0008283247591632405 -0.00041660812899392416 0.0
0.0008505510259347184 -0.00042206146757648545 0.0
0.0008730810833117853 -0.00042728787122101394 0.0
0.0008958717230217824 -0.0004321798841760981 0.0
0.0009188568353079155 -0.0004369157860262334 0.0
0.0009421633971276474 -0.0004412944466640799 0.0
0.0009655649561285799 -0.0004454689810133209 0.0
0.0009892499997805422 -0.0004494655409915157 0.0
0.0010131223706784987 -0.0004531347841528658 0.0
0.00103707664425251 -0.0004567315845471981 0.0
0.0010612960240080364 -0.00045994547138162515 0.0
0.0010854640785627075 -0.0004628373746583053 0.0
0.0011098829080409568 -0.0004655828835597194 0.0
0.0011340606202035893 -0.0004680135103339554 0.0
0.001158665480826065 -0.00047018291043802963 0.0
0.0011828667168116071 -0.00047203863577423435 0.0
0.0012076471391104342 -0.00047373301682258 0.0
0.0012321002582394278 -0.00047527378028364874 0.0
0.0012566163875591617 -0.00047643901896346643 0.0
0.0012812060263921925 -0.00047738378012423806 0.0
0.0013059098163868137 -0.0004777335560427963 0.0
0.0013305934971461725 -0.00047773477897741697 0.0
0.0013553068057601575 -0.0004771534944144298 0.0
0.0013797439098885578 -0.00047619653887195646 0.0
0.0014023183027276342 -0.0004740558827353796 0.0
0.001424755933966693 -0.0004718821254259429 0.0
0.0014477562367565663 -0.00046956512229482766 0.0
0.0014697162301684865 -0.00046667633951896385 0.0
0.0014915408382642449 -0.0004631469753235909 0.0
0.001514175504312668 -0.00045893197641615327 0.0
0.0015373017862189632 -0.000454962339070413 0.0
0.0015597071622500793 -0.0004508401505412678 0.0
0.0015834858401537013 -0.00044686633257263477 0.0
0.0016058011447481113 -0.0004425107761357233 0.0
0.001627907584522173 -0.0004375068113134092 0.0
0.001650945147843764 -0.000431548136198602 0.0
0.0016727341742341928 -0.0004247119786069703 0.0
0.0016954586754978857 -0.0004171508365343257 0.0
0.0017176604503645967 -0.000408966612790459 0.0
0.0017402393450614447 -0.0004000876006019449 0.0
0.001762747372862787 -0.00039016908205271065 0.0
0.001786058143613051 -0.00037982988224541175 0.0
0.0018087576282921755 -0.0003687304403601048 0.0
0.001831482028005731 -0.00035686825542263865 0.0
0.0018545978043979768 -0.0003439740441026543 0.0
0.0018778024524705348 -0.00033040608389421633 0.0
0.001901309340848235 -0.0003163994536804245 0.0
0.0019255052974464166 -0.00030161373652726415 0.0
0.0019498319170706574 -0.00028622520057780467 0.0
0.0019742565030233146 -0.00027028985588903136 0.0
0.00199920235474531 -0.00025360796422733197 0.0
0.002024788115961626 -0.0002360189074518778 0.0
0.00205079203313683 -0.00021760399345602076 0.0
0.0020772118481185322 -0.00019841568436175955 0.0
0.0021043418046284347 -0.0001781599374503173 0.0
0.00213260476106648 -0.00015652159078012666 0.0
0.0021616317034014215 -0.00013333065139673652 0.0
0.0021917356289856017 -0.00010805565964199746 0.0
0.002224184421650823 -7.948669025465121e-5 0.0
0.0022580555789046605 -4.6320206882307154e-5 0.0
0.002299999997473588 -1.1285610880750777e-11 0.0
0.0022999999940496564 -1.3637251145787028e-11 0.0
0.0022999999971453737 -6.140455251365377e-12 0.0
0.0022999999967482847 -5.252973028377792e-12 0.0
0.0022999999971921614 -3.677758666992049e-12 0.0
0.0022999999972241557 -2.714458611359244e-12 0.0
0.0022999999972377876 -2.0683004143503992e-12 0.0
0.002299999997358058 -1.5729869836025637e-12 0.0
0.0022999999973593505 -1.1231440667442786e-12 0.0
0.002299999997459441 -7.824989376068595e-13 0.0
0.0022999999975377356 -5.334767274776731e-13 0.0
0.0022999999976542514 -2.2729579018616372e-13 0.0
0.002299999997709397 8.547906230400355e-15 0.0
0.0022999999977948377 3.241353551864702e-13 0.0
0.002299999997842525 6.480759531744459e-13 0.0
0.002299999997873041 1.042684593693279e-12 0.0
0.0022999999979067404 1.4503475192843372e-12 0.0
0.002299999997774771 1.962514970767136e-12 0.0
0.0022999999979823314 2.3525513791129416e-12 0.0
0.0022999999977588166 2.8646227911159683e-12 0.0
0.002299999997865096 3.1906819892722924e-12 0.0
0.0022999999978273837 3.3900306397534825e-12 0.0
0.0022999999980005625 3.3121132105292773e-12 0.0
0.0022999999984783578 3.664271810302595e-12 0.0
0.0022999999991575966 2.1210358471512187e-12 0.0
0.0021449272575559835 5.767090681125358e-5 0.0
0.0020078949774595452 8.35793338669555e-5 0.0
0.0018821881839349817 8.199645140863875e-5 0.0
0.0017694528759418411 7.029065945910297e-5 0.0
0.0016926184011847563 -3.773798410816712e-6 0.0
0.0016894306270833085 -4.587388304873534e-5 0.0
0.0016789316133835872 -8.38092531382224e-5 0.0
0.0016544848173372826 -0.00010134561097013088 0.0
0.001617370015041513 -0.00010190749768502732 0.0
0.0015750569328790605 -9.308433692886972e-5 0.0
0.0015300436485400414 -7.946023375961768e-5 0.0
0.00148423694671681 -6.191866383343634e-5 0.0
0.0014369819309702477 -4.427061658008111e-5 0.0
0.0013882929311672739 -2.75574638343613e-5 0.0
0.0013352335247846744 -1.1782837660798391e-5 0.0
0.0012726195779286201 2.5618566359237812e-6 0.0
0.0011277731155006452 5.816547453734405e-5 0.0
0.0010845149407464833 7.912354789530669e-5 0.0
0.0010481953950463726 9.438040370198918e-5 0.0
0.0010160326220062807 0.0001079423185743993 0.0
0.0009864124862707833 0.000120882336760291 0.0
0.0009594942121592667 0.00013386607342554612 0.0
0.0009349447069218136 0.00014774298396581952 0.0
0.0009136953468031568 0.0001624217945554339 0.0
0.000897285926967328 0.0001824866865219354 0.0
0.0008848408501888551 0.00020263890245554556 0.0
0.0008864755033821456 0.0002420389825954568 0.0
0.0008833349861258623 0.0002873657015947122 0.0
0.0008023992498882683 0.00037843722781012674 0.0
0.0006867521064893225 0.0003773504911799928 0.0
0.0005097448366310839 0.0003198724717492555 0.0
0.0002824826501510141 0.0002089876250698722 0.0
0.000594419116723031 -0.000329995790126096 0.0
0.0015537274367154593 -0.00042597480814117537 0.0
0.0007453720145824481 -0.0003810149258830031 0.0
0.0013936651860777583 -0.00045794486371459995 0.0
0.0009059052694416235 -0.00042070247429653804 0.0
0.001216154809167493 -0.00045580272266384906 0.0
0.0010477824028098791 -0.00044239367304791424 0.0
0.0016920528086712726 -0.000390379283759348 0.0
0.0004767572990168749 -0.00028435616727430485 0.0
0.001801252445684061 -0.00034281767609816376 0.0
0.0003790926159748063 -0.00023869408653147566 0.0
3.608622644975535e-5 -8.23502625570832e-6 0.0
0.002253891896126367 -1.6328261291271296e-6 0.0
0.0012710612200514146 2.6215828441613655e-5 0.0
0.0014492133648811498 -3.5272585657794204e-5 0.0
0.0010982012205894 5.2041535421454974e-5 0.0
0.0009773214013710397 0.00012461310982950756 0.0
0.0019208185076223456 -0.0002809357234494323 0.0
0.0002876531614761948 -0.00019036164287408353 0.0
2.950698691711269e-5 -1.0310223582496582e-5 0.0
0.0022664633972272713 -3.968125892913658e-6 0.0
0.002236090225412081 3.800945670324327e-6 0.0
4.452089769919907e-5 -1.0683277373857364e-6 0.0
0.00202060489530378 -0.0002164760489704671 0.0
0.00020833721320244223 -0.00014156026371520817 0.0
0.0015771377608144804 -7.364412606653441e-5 0.0
0.0008913385628991549 0.00016363143468083597 0.0
2.367773739264928e-5 -9.464561056908985e-6 0.0
0.0022736642513140385 -4.963046620534669e-6 0.0
0.0008379019271978674 -0.00040544488655414176 0.0
0.0009754179156665122 -0.0004327672882915378 0.0
0.0013185258698816366 -0.000459350553255785 0.0
0.0011225408794591344 -0.00044893798592526293 0.0
0.0014624850097958585 -0.0004482945267311986 0.0
0.0016181919931060676 -0.00041332171363316983 0.0
0.0006851185839420853 -0.0003624124950289732 0.0
0.0005361267651479757 -0.0003097712822664781 0.0
0.00209646388296341 -0.00016341957657143848 0.0
0.00014850296004086572 -0.00010363042785383938 0.0
0.0022202715964444613 1.1357966147944083e-5 0.0
6.240856418519265e-5 5.797198960933368e-6 0.0
0.0022788711911708322 -7.456494892788749e-6 0.0
2.2608760743825652e-5 -1.041364349554893e-5 0.0
0.0016637722488639756 -7.625861646412652e-5 0.0
0.0008520477722249935 0.00019592039542740087 0.0
0.0021904764637896827 1.6306168405681936e-5 0.0
9.849028109276164e-5 1.2859028136814308e-5 0.0
3.324860419800644e-5 -1.0105516309951828e-5 0.0
0.0022598752650095665 -3.306482062343286e-6 0.0
0.0013599684544122305 -2.805421689399434e-6 0.0
0.0010388575466266732 9.619330377220108e-5 0.0
8.380347955114056e-5 -5.8247586541353044e-5 0.0
0.0021897083608597104 -9.13192310729175e-5 0.0
0.0015060911947315614 -0.0004406333025858124 0.0
0.0011694772138675124 -0.0004536358595088103 0.0
0.0007944936128983737 -0.00039426503941468894 0.0
0.0006388742436509529 -0.00034781155529423676 0.0
0.0012686826467670624 -0.0004581456398407717 0.0
0.0017337001861336462 -0.0003748393170076273 0.0
0.0004377380831625786 -0.0002663986144567361 0.0
0.0018499263892316953 -0.00032058698959900223 0.0
0.0003387274244920699 -0.00021737380980436176 0.0
0.000246207800745669 -0.0001653445502849665 0.0
0.0019701174470200767 -0.0002497368943516895 0.0
0.0005818623213630326 0.000199505063609272 0.0
0.0019230322663401787 2.9852085205006853e-5 0.0
0.0022784515855746807 -1.2308027087054457e-5 0.0
1.958943570793541e-5 -1.0352066359439564e-5 0.0
0.0008420034981508695 0.00025777913750095124 0.0
0.001716467848449443 -2.511018392496901e-5 0.0
0.00012557125703761327 2.2430845924293013e-5 0.0
0.0021966977922848346 1.4828636057042134e-5 0.0
3.702346795439227e-5 -2.489078088161718e-5 0.0
0.0022515996416145045 -3.9632299031200297e-5 0.0
0.00181640421869721 1.884352681476377e-5 0.0
0.0018320579651278012 5.317249262412204e-6 0.0
0.0019659668091597878 1.8322243434403137e-5 0.0
0.001875752965722453 1.2882531264610484e-5 0.0
0.001770812402709118 -7.898823133161386e-6 0.0
0.0017964990889129653 1.2163765423985374e-5 0.0
0.0018998087705007587 2.5651805638300567e-5 0.0
0.001826067134513893 3.043647590837112e-5 0.0
0.001926904130568084 3.5644579832586384e-5 0.0
0.0018597691116056397 4.159359431282705e-5 0.0
0.0017657128709495803 3.7210054484166844e-5 0.0
0.0017980222015371464 4.63725545028385e-5 0.0
0.0017173111426067426 4.439123884763671e-5 0.0
0.0017450937604368453 4.918409978779544e-5 0.0
0.0016729544452134713 4.9396515752897766e-5 0.0
0.0016993297495532097 4.989786952187148e-5 0.0
0.0012434196679637747 8.567717057168292e-6 0.0
0.0011761794053986119 -4.1509546505898595e-6 0.0
0.0012221781550564512 -5.424496935015817e-6 0.0
0.0011662371590639524 -1.635383714513841e-5 0.0
0.0012073057481550612 -1.7570827299479295e-5 0.0
0.0011586211494311425 -2.6264401396499648e-5 0.0
0.0011957197961397041 -2.69209871234333e-5 0.0
0.0011515045373875503 -3.447799671468114e-5 0.0
0.0011859586140144217 -3.4673661797767356e-5 0.0
0.0011449216356363991 -4.154713940986819e-5 0.0
0.0011775340430157388 -4.1266796976766924e-5 0.0
0.0011388476269673458 -4.774850223875199e-5 0.0
0.001170132542948995 -4.751475612307621e-5 0.0
0.001134167183198957 -5.348924573413532e-5 0.0
0.0011635150177463675 -5.3205381895520764e-5 0.0
0.0011288683813147947 -5.903766066611161e-5 0.0
0.0011572679362452949 -5.868182553301736e-5 0.0
0.001122771031452985 -6.450512902155201e-5 0.0
0.001151309293473937 -6.418284536878308e-5 0.0
0.0011177519301513916 -6.98321358191668e-5 0.0
0.0011458882822618095 -6.97074993652999e-5 0.0
0.0011130730431771895 -7.523175274767266e-5 0.0
0.0011398001257858358 -7.528583589699704e-5 0.0
0.0011083291767375947 -8.076808223467664e-5 0.0
0.0011346995723768118 -8.096554701455063e-5 0.0
0.0011043612807674777 -8.62797686690754e-5 0.0
0.0011299166870983553 -8.682219155600519e-5 0.0
0.0010987435257935334 -9.192495816294589e-5 0.0
0.0011249407363457533 -9.289363679913247e-5 0.0
0.0010874557086029493 -9.86340664388291e-5 0.0
0.001121974661106641 -9.913577948135123e-5 0.0
0.0010899236656889725 -0.00010471192908142683 0.0
0.001117421000234973 -0.0001056844048036583 0.0
0.0010869315215722773 -0.00011128261824774705 0.0
0.0011134206585710872 -0.00011251742641392127 0.0
0.0010849043823216718 -0.00011794822553251065 0.0
0.0011094240645914471 -0.00011955452290084868 0.0
0.0010815949055793133 -0.00012507712739008692 0.0
0.0011123572456718605 -3.950295653300824e-5 0.0
0.0011054924658288078 -0.000126881153218702 0.0
0.001089072130019391 -6.943823335221869e-5 0.0
0.0010576320364210844 -0.00010574116076770566 0.0
0.0010762855980753572 -0.00013252289481262392 0.0
0.0011014590417797335 -0.00013449763345258387 0.0
0.0010710640607321435 -0.00014047724109416505 0.0
0.0010465806585833565 -0.0001376802077274902 0.0
0.001040651851977727 -0.00014594094428500363 0.0
0.0010963090082574565 -0.00014289383465518245 0.0
0.0011271970847318113 -0.0001365252749963804 0.0
0.0011468832297125689 -9.983405596702003e-5 0.0
0.001122209608344617 -0.00014528021633202862 0.0
0.001155204539030253 -0.00013787723247642505 0.0
0.0011490136043445412 -0.00014766145454803148 0.0
0.0010164959041412806 -0.00014284161431237007 0.0
0.0010118093441325692 -0.00015075588878986303 0.0
0.001183177675616326 -0.0001396411954668739 0.0
0.0009860746253099388 -0.00014740978513037278 0.0
0.000983087373312738 -0.0001555045410809454 0.0
0.001177546712353408 -0.00014966275645899197 0.0
0.0012106308414977303 -0.00014209201146400614 0.0
0.0009555608930603454 -0.00015182084318026158 0.0
0.000951971329235956 -0.0001600454417224754 0.0
0.0012057492982410344 -0.0001521644656349502 0.0
0.0012398988591172699 -0.00014412910188182584 0.0
0.000925294895886364 -0.00015596814869473747 0.0
0.000921459626624758 -0.00016456368557309992 0.0
0.0012348029680686688 -0.0001548689377921301 0.0
0.0012700945586197863 -0.0001461101977275807 0.0
0.0008954600113710477 -0.0001594534238104391 0.0
0.0008897968487997052 -0.0001682208641899821 0.0
0.0012653254386054587 -0.00015723175606611713 0.0
0.0013010146131692216 -0.0001480023832199169 0.0
0.0008628559484300082 -0.00016274202010765605 0.0
0.0008580450416683853 -0.00017180957357422624 0.0
0.0008293179847467879 -0.00016625949337435622 0.0
0.0008342310675568969 -0.00015683118519315887 0.0
0.0012271771310408595 -0.00016564851245942126 0.0
0.001295974778424229 -0.00015973219351414302 0.0
0.0013326078300053396 -0.00014987951051193785 0.0
0.0013383894456929328 -0.00013771737957699067 0.0
0.001170428501594376 -6.990523387863723e-5 0.0
0.0013715035634104529 -0.00013923857164739324 0.0
0.001377731641765934 -0.00012657123606211467 0.0
0.0014121511975827123 -0.0001275887674955142 0.0
0.0008271206176359328 -0.00017586914891830924 0.0
0.0007971695625744309 -0.00016912966691807178 0.0
0.000855415851144878 -0.00018157728072302855 0.0
0.0013264245951898589 -0.00016244730039599437 0.0
0.000795534044067442 -0.0001788879085355557 0.0
0.0007651807459110653 -0.00017142968285120217 0.0
0.0011999729014485784 -4.6179675750547925e-5 0.0
0.0007637362221566815 -0.00018083971239882325 0.0
0.0007333098825294497 -0.00017305191254700855 0.0
0.0007321780453685196 -0.00018257447720719617 0.0
0.000702161865400907 -0.00017388922096603154 0.0
0.0007026132621746378 -0.0001647255180884245 0.0
0.0006693887039959513 -0.0001655601610387853 0.0
0.0006703648830784663 -0.0001559386045193283 0.0
0.0006975712012281361 -0.0001831067106438365 0.0
0.0006345153085935778 -0.00015651137474311826 0.0
0.0006351946807636284 -0.00014671806366725387 0.0
0.0007315304676134927 -0.00019269101713928686 0.0
0.0007021668027438476 -0.00019404333458853247 0.0
0.0006001016181106377 -0.00014625278837075898 0.0
0.0005993746194270192 -0.00013656767775323457 0.0
0.0014193764141227569 -0.00011473747824839216 0.0
0.0014553369970102493 -0.00011550506817248815 0.0
0.0007310610478606156 -0.00020303084398090994 0.0
0.0007022833800066496 -0.00020421138693638694 0.0
0.0014629763036351012 -0.00010228622722313481 0.0
0.0015007359723605777 -0.00010309057224476101 0.0
0.0014912328589120785 -0.00011779655997635456 0.0
0.0015371133247842684 -0.00010467309094171669 0.0
0.001528273567998614 -0.00011979992346178032 0.0
0.0015744248729277132 -0.00010562510884122609 0.0
0.0015678169165547055 -0.0001206785334096557 0.0
0.0016157324702019502 -0.00010502142041353708 0.0
0.0016053392073351652 -0.00012072901847308979 0.0
0.001621930150840783 -9.082768514668542e-5 0.0
0.0016537578275161626 -0.00010539674608885203 0.0
0.0016411050429261773 -0.00012137770303306682 0.0
0.0007311744226509308 -0.00021365692134763084 0.0
0.0005622211207719952 -0.0001354758099483418 0.0
0.0005605304382886499 -0.00012537989825982916 0.0
0.0015961808186074618 -0.00013731818783647247 0.0
0.0016305945540447935 -0.00013801906674471367 0.0
0.0016748462688680077 -0.00012191294390058562 0.0
0.0015884859937539142 -0.00015464535574625274 0.0
0.0007032636741488507 -0.00021480966541292948 0.0
0.001664472577823509 -0.00013866396533727124 0.0
0.0017077880947454504 -0.00012216172067013847 0.0