# vtk DataFile Version 2.0
incompressible test for cantilever beam problem
ASCII
DATASET UNSTRUCTURED_GRID
POINTS 85 float
0.0 -6.0 0.0
48.0 -6.0 0.0
48.0 6.0 0.0
0.0 6.0 0.0
2.999999999986668 -6.0 0.0
5.999999999975707 -6.0 0.0
8.999999999961364 -6.0 0.0
11.99999999995067 -6.0 0.0
14.99999999993997 -6.0 0.0
17.99999999992927 -6.0 0.0
20.99999999991858 -6.0 0.0
23.99999999990857 -6.0 0.0
26.9999999999194 -6.0 0.0
29.99999999993091 -6.0 0.0
32.99999999994242 -6.0 0.0
35.99999999995394 -6.0 0.0
38.99999999996545 -6.0 0.0
41.99999999997696 -6.0 0.0
44.99999999998848 -6.0 0.0
48.0 -3.000000000011103 0.0
48.0 -2.202238391646461e-11 0.0
48.0 2.999999999988901 0.0
45.0000000000346 6.0 0.0
42.00000000002897 6.0 0.0
39.0000000000497 6.0 0.0
36.00000000004128 6.0 0.0
33.00000000003288 6.0 0.0
30.00000000003972 6.0 0.0
27.0000000000535 6.0 0.0
24.00000000006659 6.0 0.0
21.00000000005888 6.0 0.0
18.00000000005047 6.0 0.0
15.00000000004206 6.0 0.0
12.00000000003364 6.0 0.0
9.000000000025231 6.0 0.0
6.000000000016826 6.0 0.0
3.000000000008413 6.0 0.0
0.0 3.000000000011103 0.0
0.0 2.202238391646461e-11 0.0
0.0 -2.999999999988901 0.0
2.999999999992614 -2.999999999992079 0.0
2.999999999997909 1.122996140523469e-11 0.0
3.000000000003163 3.000000000007575 0.0
5.999999999985362 -2.999999999994323 0.0
5.999999999995862 7.733313989177759e-12 0.0
6.000000000006352 3.000000000005216 0.0
8.999999999978225 -2.999999999995646 0.0
8.999999999994003 5.858702412098182e-12 0.0
9.000000000009644 3.000000000003906 0.0
11.99999999997165 -2.999999999996654 0.0
11.99999999999244 4.4763637241374e-12 0.0
12.00000000001307 3.000000000002964 0.0
14.99999999996556 -2.999999999997564 0.0
14.99999999999111 3.245265167706179e-12 0.0
15.0000000000166 3.000000000002139 0.0
17.99999999995966 -2.999999999998447 0.0
17.99999999998992 2.058936354742968e-12 0.0
18.00000000002015 3.00000000000135 0.0
20.99999999995433 -2.99999999999932 0.0
20.99999999998884 8.857914401971811e-13 0.0
21.00000000002323 3.000000000000571 0.0
23.99999999995178 -3.000000000000191 0.0
23.99999999998779 -2.836619827917275e-13 0.0
24.0000000000236 2.999999999999794 0.0
26.99999999995399 -3.000000000001061 0.0
26.99999999998715 -1.452005182756011e-12 0.0
27.00000000001991 2.999999999999019 0.0
29.99999999995971 -3.000000000001932 0.0
29.99999999998823 -2.62037613829591e-12 0.0
30.00000000001566 2.999999999998243 0.0
32.99999999996734 -3.000000000002802 0.0
32.99999999999206 -3.788525049230884e-12 0.0
33.00000000001545 2.999999999997467 0.0
35.99999999997581 -3.000000000003673 0.0
35.99999999999749 -4.95672947131709e-12 0.0
36.00000000001921 2.999999999996693 0.0
38.99999999998376 -3.000000000004543 0.0
39.00000000000207 -6.124795115525217e-12 0.0
39.00000000002137 2.999999999995917 0.0
41.99999999999061 -3.000000000005529 0.0
42.00000000000439 -7.496753218205754e-12 0.0
42.00000000001917 2.999999999994972 0.0
44.99999999999595 -3.000000000007437 0.0
45.00000000000347 -1.053609977041958e-11 0.0
45.0000000000126 2.999999999992899 0.0
CELLS 64 320
4 0 4 40 39
4 39 40 41 38
4 38 41 42 37
4 37 42 36 3
4 4 5 43 40
4 40 43 44 41
4 41 44 45 42
4 42 45 35 36
4 5 6 46 43
4 43 46 47 44
4 44 47 48 45
4 45 48 34 35
4 6 7 49 46
4 46 49 50 47
4 47 50 51 48
4 48 51 33 34
4 7 8 52 49
4 49 52 53 50
4 50 53 54 51
4 51 54 32 33
4 8 9 55 52
4 52 55 56 53
4 53 56 57 54
4 54 57 31 32
4 9 10 58 55
4 55 58 59 56
4 56 59 60 57
4 57 60 30 31
4 10 11 61 58
4 58 61 62 59
4 59 62 63 60
4 60 63 29 30
4 11 12 64 61
4 61 64 65 62
4 62 65 66 63
4 63 66 28 29
4 12 13 67 64
4 64 67 68 65
4 65 68 69 66
4 66 69 27 28
4 13 14 70 67
4 67 70 71 68
4 68 71 72 69
4 69 72 26 27
4 14 15 73 70
4 70 73 74 71
4 71 74 75 72
4 72 75 25 26
4 15 16 76 73
4 73 76 77 74
4 74 77 78 75
4 75 78 24 25
4 16 17 79 76
4 76 79 80 77
4 77 80 81 78
4 78 81 23 24
4 17 18 82 79
4 79 82 83 80
4 80 83 84 81
4 81 84 22 23
4 18 1 19 82
4 82 19 20 83
4 83 20 21 84
4 84 21 2 22
CELL_TYPES 64
9
9
9
9
9
9
9
9
9
9
9
9
9
9
9
9
9
9
9
9
9
9
9
9
9
9
9
9
9
9
9
9
9
9
9
9
9
9
9
9
9
9
9
9
9
9
9
9
9
9
9
9
9
9
9
9
9
9
9
9
9
9
9
9
POINT_DATA 85
VECTORS disp float
-2.120513574717107e-5 0.0014373177219886425 0.0
0.001520994810416919 0.01569150429654883 0.0
-0.00152099481108224 0.015691504296658092 0.0
2.120513574686489e-5 0.0014373177219894422 0.0
0.0008736249592296057 0.0013594768054598675 0.0
0.0012369132251967472 0.0019102116658178377 0.0
0.001395445569215913 0.002721191980720604 0.0
0.0014631735175282515 0.0036445977829514956 0.0
0.0014928163431946876 0.004616001322388579 0.0
0.0015060842099435614 0.0056082143203691915 0.0
0.0015123345224685209 0.006609592714428402 0.0
0.0015155275739185184 0.007615155745642827 0.0
0.0015173516408478489 0.00862274883229918 0.0
0.0015185243811196875 0.009631421165267016 0.0
0.0015193512409586822 0.010640733830193806 0.0
0.001519962248941643 0.011650465795789097 0.0
0.001520412914829549 0.012660488861990851 0.0
0.0015207275955862888 0.013670714788951223 0.0
0.00152091665010431 0.014681072706451904 0.0
0.0009614600829789471 0.015691484072490967 0.0
-3.03751375993095e-13 0.015691490497237358 0.0
-0.000961460083605085 0.015691484072546016 0.0
-0.0015209166507149279 0.014681072706577035 0.0
-0.0015207275961410891 0.01367071478907877 0.0
-0.0015204129153284305 0.012660488862128786 0.0
-0.0015199622493850978 0.011650465795926417 0.0
-0.0015193512413478004 0.010640733830329374 0.0
-0.001518524381456187 0.009631421165404762 0.0
-0.001517351641133964 0.008622748832440411 0.0
-0.0015155275741569956 0.007615155745786027 0.0
-0.0015123345226625755 0.006609592714558516 0.0
-0.0015060842100969422 0.005608214320484684 0.0
-0.0014928163433115772 0.004616001322488382 0.0
-0.0014631735176131677 0.0036445977830345646 0.0
-0.001395445569273519 0.0027211919807858713 0.0
-0.0012369132252312847 0.0019102116658634635 0.0
-0.0008736249592446646 0.0013594768054862446 0.0
8.258940353885225e-5 0.0003125774079274268 0.0
7.465481515504211e-16 -6.25258625703911e-5 0.0
-8.258940353876096e-5 0.0003125774079207 0.0
0.0005055369059376496 0.0008994790130199328 0.0
-3.4394897926872967e-15 0.0006939250093031532 0.0
-0.0005055369059474415 0.0008994790130335624 0.0
0.0007687941108870087 0.0017107994751450386 0.0
-9.359908478090442e-15 0.0016310807462198908 0.0
-0.0007687941109109359 0.00171079947516805 0.0
0.0008786788140699173 0.0026364402196629054 0.0
-1.8383243488150252e-14 0.002601171074676009 0.0
-0.0008786788141132229 0.0026364402196951977 0.0
0.0009258745106301402 0.00360802563930284 0.0
-3.0285854912636423e-14 0.0035932068576180333 0.0
-0.0009258745106981624 0.0036080256393441036 0.0
0.0009459606626036091 0.004600071176856612 0.0
-4.486705358053761e-14 0.004593695441579435 0.0
-0.0009459606627014756 0.004600071176906223 0.0
0.000954580910364452 0.005601085119305726 0.0
-6.186655476072915e-14 0.005598348449711029 0.0
-0.0009545809104968944 0.00560108511936314 0.0
0.0009583044630581168 0.006606248371997568 0.0
-8.103069885607061e-14 0.006605055620544605 0.0
-0.000958304463229409 0.0066062483720618955 0.0
0.0009599404728827259 0.007613458729108777 0.0
-1.0209278525513794e-13 0.007612927309173478 0.0
-0.0009599404730966527 0.007613458729177649 0.0
0.0009606815079660493 0.008621790415232257 0.0
-1.2479258698860108e-13 0.008621543402714905 0.0
-0.0009606815082258861 0.008621790415302179 0.0
0.0009610352950615869 0.009630814651601476 0.0
-1.4887986626099856e-13 0.009630691956469047 0.0
-0.0009610352953700798 0.009630814651670563 0.0
0.000961217752764816 0.010640314695536465 0.0
-1.740961998024548e-13 0.01064024816342792 0.0
-0.0009612177531242205 0.010640314695604914 0.0
0.000961320781293384 0.011650163931269013 0.0
-2.0015837186378353e-13 0.01165012455397219 0.0
-0.000961320781705388 0.01165016393133727 0.0
0.0009613836349318963 0.012660274204376763 0.0
-2.2678194788877732e-13 0.012660249442683376 0.0
-0.0009613836353976062 0.012660274204443928 0.0
0.0009614232210317376 0.013670573664445325 0.0
-2.536363475336256e-13 0.013670558443248269 0.0
-0.0009614232215515874 0.013670573664509727 0.0
0.0009614484873518973 0.014680999020058746 0.0
-2.8003254870232874e-13 0.014680987397282451 0.0
-0.0009614484879253544 0.014680999020119144 0.0
CELL_DATA 64
